<?xml version="1.0"?>
<VTKFile type="UnstructuredGrid" version="1.0" byte_order="LittleEndian" compressor="vtkZLibDataCompressor">
  <UnstructuredGrid>
    <Piece NumberOfPoints="286" NumberOfCells="176">
      <Points>
        <DataArray type="Float32" Name="Points" NumberOfComponents="3" format="ascii">
          0.000e+00 0.000e+00 4.500e+00 
          6.505e+00 0.000e+00 4.500e+00 
          1.301e+01 0.000e+00 4.500e+00 
          2.121e+01 0.000e+00 4.500e+00 
          2.941e+01 0.000e+00 4.500e+00 
          0.000e+00 2.225e+00 4.500e+00 
          6.505e+00 2.225e+00 4.500e+00 
          1.301e+01 2.225e+00 4.500e+00 
          2.121e+01 2.225e+00 4.500e+00 
          2.941e+01 2.225e+00 4.500e+00 
          0.000e+00 9.425e+00 4.500e+00 
          6.505e+00 9.425e+00 4.500e+00 
          1.301e+01 9.425e+00 4.500e+00 
          2.121e+01 9.425e+00 4.500e+00 
          2.941e+01 9.425e+00 4.500e+00 
          0.000e+00 1.662e+01 4.500e+00 
          6.505e+00 1.662e+01 4.500e+00 
          1.301e+01 1.662e+01 4.500e+00 
          2.121e+01 1.662e+01 4.500e+00 
          2.941e+01 1.662e+01 4.500e+00 
          1.301e+01 2.382e+01 4.500e+00 
          2.121e+01 2.382e+01 4.500e+00 
          2.941e+01 2.382e+01 4.500e+00 
          1.301e+01 3.102e+01 4.500e+00 
          2.121e+01 3.102e+01 4.500e+00 
          2.941e+01 3.102e+01 4.500e+00 
          0.000e+00 0.000e+00 7.600e+00 
          6.505e+00 0.000e+00 7.600e+00 
          1.301e+01 0.000e+00 7.600e+00 
          2.121e+01 0.000e+00 7.600e+00 
          2.941e+01 0.000e+00 7.600e+00 
          0.000e+00 2.225e+00 7.600e+00 
          6.505e+00 2.225e+00 7.600e+00 
          1.301e+01 2.225e+00 7.600e+00 
          2.121e+01 2.225e+00 7.600e+00 
          2.941e+01 2.225e+00 7.600e+00 
          0.000e+00 9.425e+00 7.600e+00 
          6.505e+00 9.425e+00 7.600e+00 
          1.301e+01 9.425e+00 7.600e+00 
          2.121e+01 9.425e+00 7.600e+00 
          2.941e+01 9.425e+00 7.600e+00 
          0.000e+00 1.662e+01 7.600e+00 
          6.505e+00 1.662e+01 7.600e+00 
          1.301e+01 1.662e+01 7.600e+00 
          2.121e+01 1.662e+01 7.600e+00 
          2.941e+01 1.662e+01 7.600e+00 
          1.301e+01 2.382e+01 7.600e+00 
          2.121e+01 2.382e+01 7.600e+00 
          2.941e+01 2.382e+01 7.600e+00 
          1.301e+01 3.102e+01 7.600e+00 
          2.121e+01 3.102e+01 7.600e+00 
          2.941e+01 3.102e+01 7.600e+00 
          0.000e+00 0.000e+00 1.070e+01 
          6.505e+00 0.000e+00 1.070e+01 
          1.301e+01 0.000e+00 1.070e+01 
          2.121e+01 0.000e+00 1.070e+01 
          2.941e+01 0.000e+00 1.070e+01 
          0.000e+00 2.225e+00 1.070e+01 
          6.505e+00 2.225e+00 1.070e+01 
          1.301e+01 2.225e+00 1.070e+01 
          2.121e+01 2.225e+00 1.070e+01 
          2.941e+01 2.225e+00 1.070e+01 
          0.000e+00 9.425e+00 1.070e+01 
          6.505e+00 9.425e+00 1.070e+01 
          1.301e+01 9.425e+00 1.070e+01 
          2.121e+01 9.425e+00 1.070e+01 
          2.941e+01 9.425e+00 1.070e+01 
          0.000e+00 1.662e+01 1.070e+01 
          6.505e+00 1.662e+01 1.070e+01 
          1.301e+01 1.662e+01 1.070e+01 
          2.121e+01 1.662e+01 1.070e+01 
          2.941e+01 1.662e+01 1.070e+01 
          1.301e+01 2.382e+01 1.070e+01 
          2.121e+01 2.382e+01 1.070e+01 
          2.941e+01 2.382e+01 1.070e+01 
          1.301e+01 3.102e+01 1.070e+01 
          2.121e+01 3.102e+01 1.070e+01 
          2.941e+01 3.102e+01 1.070e+01 
          0.000e+00 0.000e+00 1.380e+01 
          6.505e+00 0.000e+00 1.380e+01 
          1.301e+01 0.000e+00 1.380e+01 
          2.121e+01 0.000e+00 1.380e+01 
          2.941e+01 0.000e+00 1.380e+01 
          0.000e+00 2.225e+00 1.380e+01 
          6.505e+00 2.225e+00 1.380e+01 
          1.301e+01 2.225e+00 1.380e+01 
          2.121e+01 2.225e+00 1.380e+01 
          2.941e+01 2.225e+00 1.380e+01 
          0.000e+00 9.425e+00 1.380e+01 
          6.505e+00 9.425e+00 1.380e+01 
          1.301e+01 9.425e+00 1.380e+01 
          2.121e+01 9.425e+00 1.380e+01 
          2.941e+01 9.425e+00 1.380e+01 
          0.000e+00 1.662e+01 1.380e+01 
          6.505e+00 1.662e+01 1.380e+01 
          1.301e+01 1.662e+01 1.380e+01 
          2.121e+01 1.662e+01 1.380e+01 
          2.941e+01 1.662e+01 1.380e+01 
          1.301e+01 2.382e+01 1.380e+01 
          2.121e+01 2.382e+01 1.380e+01 
          2.941e+01 2.382e+01 1.380e+01 
          1.301e+01 3.102e+01 1.380e+01 
          2.121e+01 3.102e+01 1.380e+01 
          2.941e+01 3.102e+01 1.380e+01 
          0.000e+00 0.000e+00 1.690e+01 
          6.505e+00 0.000e+00 1.690e+01 
          1.301e+01 0.000e+00 1.690e+01 
          2.121e+01 0.000e+00 1.690e+01 
          2.941e+01 0.000e+00 1.690e+01 
          0.000e+00 2.225e+00 1.690e+01 
          6.505e+00 2.225e+00 1.690e+01 
          1.301e+01 2.225e+00 1.690e+01 
          2.121e+01 2.225e+00 1.690e+01 
          2.941e+01 2.225e+00 1.690e+01 
          0.000e+00 9.425e+00 1.690e+01 
          6.505e+00 9.425e+00 1.690e+01 
          1.301e+01 9.425e+00 1.690e+01 
          2.121e+01 9.425e+00 1.690e+01 
          2.941e+01 9.425e+00 1.690e+01 
          0.000e+00 1.662e+01 1.690e+01 
          6.505e+00 1.662e+01 1.690e+01 
          1.301e+01 1.662e+01 1.690e+01 
          2.121e+01 1.662e+01 1.690e+01 
          2.941e+01 1.662e+01 1.690e+01 
          1.301e+01 2.382e+01 1.690e+01 
          2.121e+01 2.382e+01 1.690e+01 
          2.941e+01 2.382e+01 1.690e+01 
          1.301e+01 3.102e+01 1.690e+01 
          2.121e+01 3.102e+01 1.690e+01 
          2.941e+01 3.102e+01 1.690e+01 
          0.000e+00 0.000e+00 2.000e+01 
          6.505e+00 0.000e+00 2.000e+01 
          1.301e+01 0.000e+00 2.000e+01 
          2.121e+01 0.000e+00 2.000e+01 
          2.941e+01 0.000e+00 2.000e+01 
          0.000e+00 2.225e+00 2.000e+01 
          6.505e+00 2.225e+00 2.000e+01 
          1.301e+01 2.225e+00 2.000e+01 
          2.121e+01 2.225e+00 2.000e+01 
          2.941e+01 2.225e+00 2.000e+01 
          0.000e+00 9.425e+00 2.000e+01 
          6.505e+00 9.425e+00 2.000e+01 
          1.301e+01 9.425e+00 2.000e+01 
          2.121e+01 9.425e+00 2.000e+01 
          2.941e+01 9.425e+00 2.000e+01 
          0.000e+00 1.662e+01 2.000e+01 
          6.505e+00 1.662e+01 2.000e+01 
          1.301e+01 1.662e+01 2.000e+01 
          2.121e+01 1.662e+01 2.000e+01 
          2.941e+01 1.662e+01 2.000e+01 
          1.301e+01 2.382e+01 2.000e+01 
          2.121e+01 2.382e+01 2.000e+01 
          2.941e+01 2.382e+01 2.000e+01 
          1.301e+01 3.102e+01 2.000e+01 
          2.121e+01 3.102e+01 2.000e+01 
          2.941e+01 3.102e+01 2.000e+01 
          0.000e+00 0.000e+00 2.310e+01 
          6.505e+00 0.000e+00 2.310e+01 
          1.301e+01 0.000e+00 2.310e+01 
          2.121e+01 0.000e+00 2.310e+01 
          2.941e+01 0.000e+00 2.310e+01 
          0.000e+00 2.225e+00 2.310e+01 
          6.505e+00 2.225e+00 2.310e+01 
          1.301e+01 2.225e+00 2.310e+01 
          2.121e+01 2.225e+00 2.310e+01 
          2.941e+01 2.225e+00 2.310e+01 
          0.000e+00 9.425e+00 2.310e+01 
          6.505e+00 9.425e+00 2.310e+01 
          1.301e+01 9.425e+00 2.310e+01 
          2.121e+01 9.425e+00 2.310e+01 
          2.941e+01 9.425e+00 2.310e+01 
          0.000e+00 1.662e+01 2.310e+01 
          6.505e+00 1.662e+01 2.310e+01 
          1.301e+01 1.662e+01 2.310e+01 
          2.121e+01 1.662e+01 2.310e+01 
          2.941e+01 1.662e+01 2.310e+01 
          1.301e+01 2.382e+01 2.310e+01 
          2.121e+01 2.382e+01 2.310e+01 
          2.941e+01 2.382e+01 2.310e+01 
          1.301e+01 3.102e+01 2.310e+01 
          2.121e+01 3.102e+01 2.310e+01 
          2.941e+01 3.102e+01 2.310e+01 
          0.000e+00 0.000e+00 2.620e+01 
          6.505e+00 0.000e+00 2.620e+01 
          1.301e+01 0.000e+00 2.620e+01 
          2.121e+01 0.000e+00 2.620e+01 
          2.941e+01 0.000e+00 2.620e+01 
          0.000e+00 2.225e+00 2.620e+01 
          6.505e+00 2.225e+00 2.620e+01 
          1.301e+01 2.225e+00 2.620e+01 
          2.121e+01 2.225e+00 2.620e+01 
          2.941e+01 2.225e+00 2.620e+01 
          0.000e+00 9.425e+00 2.620e+01 
          6.505e+00 9.425e+00 2.620e+01 
          1.301e+01 9.425e+00 2.620e+01 
          2.121e+01 9.425e+00 2.620e+01 
          2.941e+01 9.425e+00 2.620e+01 
          0.000e+00 1.662e+01 2.620e+01 
          6.505e+00 1.662e+01 2.620e+01 
          1.301e+01 1.662e+01 2.620e+01 
          2.121e+01 1.662e+01 2.620e+01 
          2.941e+01 1.662e+01 2.620e+01 
          1.301e+01 2.382e+01 2.620e+01 
          2.121e+01 2.382e+01 2.620e+01 
          2.941e+01 2.382e+01 2.620e+01 
          1.301e+01 3.102e+01 2.620e+01 
          2.121e+01 3.102e+01 2.620e+01 
          2.941e+01 3.102e+01 2.620e+01 
          0.000e+00 0.000e+00 2.930e+01 
          6.505e+00 0.000e+00 2.930e+01 
          1.301e+01 0.000e+00 2.930e+01 
          2.121e+01 0.000e+00 2.930e+01 
          2.941e+01 0.000e+00 2.930e+01 
          0.000e+00 2.225e+00 2.930e+01 
          6.505e+00 2.225e+00 2.930e+01 
          1.301e+01 2.225e+00 2.930e+01 
          2.121e+01 2.225e+00 2.930e+01 
          2.941e+01 2.225e+00 2.930e+01 
          0.000e+00 9.425e+00 2.930e+01 
          6.505e+00 9.425e+00 2.930e+01 
          1.301e+01 9.425e+00 2.930e+01 
          2.121e+01 9.425e+00 2.930e+01 
          2.941e+01 9.425e+00 2.930e+01 
          0.000e+00 1.662e+01 2.930e+01 
          6.505e+00 1.662e+01 2.930e+01 
          1.301e+01 1.662e+01 2.930e+01 
          2.121e+01 1.662e+01 2.930e+01 
          2.941e+01 1.662e+01 2.930e+01 
          1.301e+01 2.382e+01 2.930e+01 
          2.121e+01 2.382e+01 2.930e+01 
          2.941e+01 2.382e+01 2.930e+01 
          1.301e+01 3.102e+01 2.930e+01 
          2.121e+01 3.102e+01 2.930e+01 
          2.941e+01 3.102e+01 2.930e+01 
          0.000e+00 0.000e+00 3.240e+01 
          6.505e+00 0.000e+00 3.240e+01 
[...]
      <PointData>
        <DataArray type="Int32" Name="NodeTag" format="ascii">
          11000
          11001
          11002
          11003
          11004
          11005
          11006
          11007
          11008
          11009
          11010
          11011
          11012
          11013
          11014
          11015
          11016
          11017
          11018
          11019
          11020
          11021
          11022
          11023
          11024
          11025
          21000
          21001
          21002
          21003
          21004
          21005
          21006
          21007
          21008
          21009
          21010
          21011
          21012
          21013
          21014
          21015
          21016
          21017
          21018
          21019
          21020
          21021
          21022
          21023
          21024
          21025
          31000
          31001
          31002
          31003
          31004
          31005
          31006
          31007
          31008
          31009
          31010
          31011
          31012
          31013
          31014
          31015
          31016
          31017
          31018
          31019
          31020
          31021
          31022
          31023
          31024
          31025
          41000
          41001
          41002
          41003
          41004
          41005
          41006
          41007
          41008
          41009
          41010
          41011
          41012
          41013
          41014
          41015
          41016
          41017
          41018
          41019
          41020
          41021
          41022
          41023
          41024
          41025
          51000
          51001
          51002
          51003
          51004
          51005
          51006
          51007
          51008
          51009
          51010
          51011
          51012
          51013
          51014
          51015
          51016
          51017
          51018
          51019
          51020
          51021
          51022
          51023
          51024
          51025
          61000
          61001
          61002
          61003
          61004
          61005
          61006
          61007
          61008
          61009
          61010
          61011
          61012
          61013
          61014
          61015
          61016
          61017
          61018
          61019
          61020
          61021
          61022
          61023
          61024
          61025
          71000
          71001
          71002
          71003
          71004
          71005
          71006
          71007
          71008
          71009
          71010
          71011
          71012
          71013
          71014
          71015
          71016
          71017
          71018
          71019
          71020
          71021
          71022
          71023
          71024
          71025
          81000
          81001
          81002
          81003
          81004
          81005
          81006
          81007
          81008
          81009
          81010
          81011
          81012
          81013
          81014
          81015
          81016
          81017
          81018
          81019
          81020
          81021
          81022
          81023
          81024
          81025
          91000
          91001
          91002
          91003
          91004
          91005
          91006
          91007
          91008
          91009
          91010
          91011
          91012
          91013
          91014
          91015
          91016
          91017
          91018
          91019
          91020
          91021
          91022
          91023
          91024
          91025
          101000
          101001
          101002
          101003
          101004
          101005
          101006
          101007
          101008
          101009
          101010
          101011
          101012
          101013
          101014
          101015
          101016
          101017
          101018
          101019
          101020
          101021
          101022
          101023
          101024
          101025
          111000
          111001
          111002
          111003
          111004
          111005
          111006
          111007
          111008
          111009
          111010
          111011
          111012
          111013
          111014
          111015
          111016
          111017
          111018
          111019
          111020
          111021
          111022
          111023
          111024
          111025
        </DataArray>
        <DataArray type="Float32" Name="Reaction" NumberOfComponents="3" format="ascii">
          0.000e+00 0.000e+00 0.000e+00 
          0.000e+00 0.000e+00 0.000e+00 
          0.000e+00 0.000e+00 0.000e+00 
          0.000e+00 0.000e+00 0.000e+00 
          0.000e+00 0.000e+00 0.000e+00 
          0.000e+00 0.000e+00 0.000e+00 
          0.000e+00 0.000e+00 0.000e+00 
          0.000e+00 0.000e+00 0.000e+00 
          0.000e+00 0.000e+00 0.000e+00 
          0.000e+00 0.000e+00 0.000e+00 
          0.000e+00 0.000e+00 0.000e+00 
          0.000e+00 0.000e+00 0.000e+00 
          0.000e+00 0.000e+00 0.000e+00 
          0.000e+00 0.000e+00 0.000e+00 
          0.000e+00 0.000e+00 0.000e+00 
          0.000e+00 0.000e+00 0.000e+00 
          0.000e+00 0.000e+00 0.000e+00 
          0.000e+00 0.000e+00 0.000e+00 
          0.000e+00 0.000e+00 0.000e+00 
          0.000e+00 0.000e+00 0.000e+00 
          0.000e+00 0.000e+00 0.000e+00 
          0.000e+00 0.000e+00 0.000e+00 
          0.000e+00 0.000e+00 0.000e+00 
          0.000e+00 0.000e+00 0.000e+00 
          0.000e+00 0.000e+00 0.000e+00 
          0.000e+00 0.000e+00 0.000e+00 
          0.000e+00 0.000e+00 0.000e+00 
          0.000e+00 0.000e+00 0.000e+00 
          0.000e+00 0.000e+00 0.000e+00 
          0.000e+00 0.000e+00 0.000e+00 
          0.000e+00 0.000e+00 0.000e+00 
          0.000e+00 0.000e+00 0.000e+00 
          0.000e+00 0.000e+00 0.000e+00 
          0.000e+00 0.000e+00 0.000e+00 
          0.000e+00 0.000e+00 0.000e+00 
          0.000e+00 0.000e+00 0.000e+00 
          0.000e+00 0.000e+00 0.000e+00 
          0.000e+00 0.000e+00 0.000e+00 
          0.000e+00 0.000e+00 0.000e+00 
          0.000e+00 0.000e+00 0.000e+00 
          0.000e+00 0.000e+00 0.000e+00 
          0.000e+00 0.000e+00 0.000e+00 
          0.000e+00 0.000e+00 0.000e+00 
          0.000e+00 0.000e+00 0.000e+00 
          0.000e+00 0.000e+00 0.000e+00 
          0.000e+00 0.000e+00 0.000e+00 
          0.000e+00 0.000e+00 0.000e+00 
          0.000e+00 0.000e+00 0.000e+00 
          0.000e+00 0.000e+00 0.000e+00 
          0.000e+00 0.000e+00 0.000e+00 
          0.000e+00 0.000e+00 0.000e+00 
          0.000e+00 0.000e+00 0.000e+00 
          0.000e+00 0.000e+00 0.000e+00 
          0.000e+00 0.000e+00 0.000e+00 
          0.000e+00 0.000e+00 0.000e+00 
          0.000e+00 0.000e+00 0.000e+00 
          0.000e+00 0.000e+00 0.000e+00 
          0.000e+00 0.000e+00 0.000e+00 
          0.000e+00 0.000e+00 0.000e+00 
          0.000e+00 0.000e+00 0.000e+00 
          0.000e+00 0.000e+00 0.000e+00 
          0.000e+00 0.000e+00 0.000e+00 
          0.000e+00 0.000e+00 0.000e+00 
          0.000e+00 0.000e+00 0.000e+00 
          0.000e+00 0.000e+00 0.000e+00 
          0.000e+00 0.000e+00 0.000e+00 
          0.000e+00 0.000e+00 0.000e+00 
          0.000e+00 0.000e+00 0.000e+00 
          0.000e+00 0.000e+00 0.000e+00 
          0.000e+00 0.000e+00 0.000e+00 
          0.000e+00 0.000e+00 0.000e+00 
          0.000e+00 0.000e+00 0.000e+00 
          0.000e+00 0.000e+00 0.000e+00 
          0.000e+00 0.000e+00 0.000e+00 
          0.000e+00 0.000e+00 0.000e+00 
          0.000e+00 0.000e+00 0.000e+00 
          0.000e+00 0.000e+00 0.000e+00 
          0.000e+00 0.000e+00 0.000e+00 
          0.000e+00 0.000e+00 0.000e+00 
          0.000e+00 0.000e+00 0.000e+00 
          0.000e+00 0.000e+00 0.000e+00 
          0.000e+00 0.000e+00 0.000e+00 
          0.000e+00 0.000e+00 0.000e+00 
          0.000e+00 0.000e+00 0.000e+00 
          0.000e+00 0.000e+00 0.000e+00 
          0.000e+00 0.000e+00 0.000e+00 
          0.000e+00 0.000e+00 0.000e+00 
          0.000e+00 0.000e+00 0.000e+00 
          0.000e+00 0.000e+00 0.000e+00 
          0.000e+00 0.000e+00 0.000e+00 
          0.000e+00 0.000e+00 0.000e+00 
          0.000e+00 0.000e+00 0.000e+00 
          0.000e+00 0.000e+00 0.000e+00 
          0.000e+00 0.000e+00 0.000e+00 
          0.000e+00 0.000e+00 0.000e+00 
          0.000e+00 0.000e+00 0.000e+00 
          0.000e+00 0.000e+00 0.000e+00 
          0.000e+00 0.000e+00 0.000e+00 
          0.000e+00 0.000e+00 0.000e+00 
          0.000e+00 0.000e+00 0.000e+00 
          0.000e+00 0.000e+00 0.000e+00 
          0.000e+00 0.000e+00 0.000e+00 
          0.000e+00 0.000e+00 0.000e+00 
          0.000e+00 0.000e+00 0.000e+00 
          0.000e+00 0.000e+00 0.000e+00 
          0.000e+00 0.000e+00 0.000e+00 
          0.000e+00 0.000e+00 0.000e+00 
          0.000e+00 0.000e+00 0.000e+00 
          0.000e+00 0.000e+00 0.000e+00 
          0.000e+00 0.000e+00 0.000e+00 
          0.000e+00 0.000e+00 0.000e+00 
          0.000e+00 0.000e+00 0.000e+00 
          0.000e+00 0.000e+00 0.000e+00 
          0.000e+00 0.000e+00 0.000e+00 
          0.000e+00 0.000e+00 0.000e+00 
          0.000e+00 0.000e+00 0.000e+00 
          0.000e+00 0.000e+00 0.000e+00 
          0.000e+00 0.000e+00 0.000e+00 
          0.000e+00 0.000e+00 0.000e+00 
          0.000e+00 0.000e+00 0.000e+00 
          0.000e+00 0.000e+00 0.000e+00 
          0.000e+00 0.000e+00 0.000e+00 
          0.000e+00 0.000e+00 0.000e+00 
          0.000e+00 0.000e+00 0.000e+00 
          0.000e+00 0.000e+00 0.000e+00 
          0.000e+00 0.000e+00 0.000e+00 
          0.000e+00 0.000e+00 0.000e+00 
          0.000e+00 0.000e+00 0.000e+00 
          0.000e+00 0.000e+00 0.000e+00 
          0.000e+00 0.000e+00 0.000e+00 
          0.000e+00 0.000e+00 0.000e+00 
          0.000e+00 0.000e+00 0.000e+00 
          0.000e+00 0.000e+00 0.000e+00 
          0.000e+00 0.000e+00 0.000e+00 
          0.000e+00 0.000e+00 0.000e+00 
          0.000e+00 0.000e+00 0.000e+00 
          0.000e+00 0.000e+00 0.000e+00 
          0.000e+00 0.000e+00 0.000e+00 
          0.000e+00 0.000e+00 0.000e+00 
          0.000e+00 0.000e+00 0.000e+00 
          0.000e+00 0.000e+00 0.000e+00 
          0.000e+00 0.000e+00 0.000e+00 
          0.000e+00 0.000e+00 0.000e+00 
          0.000e+00 0.000e+00 0.000e+00 
          0.000e+00 0.000e+00 0.000e+00 
          0.000e+00 0.000e+00 0.000e+00 
          0.000e+00 0.000e+00 0.000e+00 
          0.000e+00 0.000e+00 0.000e+00 
          0.000e+00 0.000e+00 0.000e+00 
          0.000e+00 0.000e+00 0.000e+00 
          0.000e+00 0.000e+00 0.000e+00 
          0.000e+00 0.000e+00 0.000e+00 
          0.000e+00 0.000e+00 0.000e+00 
          0.000e+00 0.000e+00 0.000e+00 
          0.000e+00 0.000e+00 0.000e+00 
          0.000e+00 0.000e+00 0.000e+00 
          0.000e+00 0.000e+00 0.000e+00 
          0.000e+00 0.000e+00 0.000e+00 
          0.000e+00 0.000e+00 0.000e+00 
          0.000e+00 0.000e+00 0.000e+00 
          0.000e+00 0.000e+00 0.000e+00 
          0.000e+00 0.000e+00 0.000e+00 
          0.000e+00 0.000e+00 0.000e+00 
          0.000e+00 0.000e+00 0.000e+00 
          0.000e+00 0.000e+00 0.000e+00 
          0.000e+00 0.000e+00 0.000e+00 
          0.000e+00 0.000e+00 0.000e+00 
          0.000e+00 0.000e+00 0.000e+00 
          0.000e+00 0.000e+00 0.000e+00 
          0.000e+00 0.000e+00 0.000e+00 
          0.000e+00 0.000e+00 0.000e+00 
          0.000e+00 0.000e+00 0.000e+00 
          0.000e+00 0.000e+00 0.000e+00 
          0.000e+00 0.000e+00 0.000e+00 
          0.000e+00 0.000e+00 0.000e+00 
          0.000e+00 0.000e+00 0.000e+00 
          0.000e+00 0.000e+00 0.000e+00 
          0.000e+00 0.000e+00 0.000e+00 
          0.000e+00 0.000e+00 0.000e+00 
          0.000e+00 0.000e+00 0.000e+00 
          0.000e+00 0.000e+00 0.000e+00 
          0.000e+00 0.000e+00 0.000e+00 
          0.000e+00 0.000e+00 0.000e+00 
          0.000e+00 0.000e+00 0.000e+00 
          0.000e+00 0.000e+00 0.000e+00 
          0.000e+00 0.000e+00 0.000e+00 
          0.000e+00 0.000e+00 0.000e+00 
          0.000e+00 0.000e+00 0.000e+00 
          0.000e+00 0.000e+00 0.000e+00 
          0.000e+00 0.000e+00 0.000e+00 
          0.000e+00 0.000e+00 0.000e+00 
          0.000e+00 0.000e+00 0.000e+00 
          0.000e+00 0.000e+00 0.000e+00 
          0.000e+00 0.000e+00 0.000e+00 
          0.000e+00 0.000e+00 0.000e+00 
          0.000e+00 0.000e+00 0.000e+00 
          0.000e+00 0.000e+00 0.000e+00 
          0.000e+00 0.000e+00 0.000e+00 
          0.000e+00 0.000e+00 0.000e+00 
          0.000e+00 0.000e+00 0.000e+00 
          0.000e+00 0.000e+00 0.000e+00 
          0.000e+00 0.000e+00 0.000e+00 
          0.000e+00 0.000e+00 0.000e+00 
          0.000e+00 0.000e+00 0.000e+00 
          0.000e+00 0.000e+00 0.000e+00 
          0.000e+00 0.000e+00 0.000e+00 
          0.000e+00 0.000e+00 0.000e+00 
          0.000e+00 0.000e+00 0.000e+00 
          0.000e+00 0.000e+00 0.000e+00 
          0.000e+00 0.000e+00 0.000e+00 
          0.000e+00 0.000e+00 0.000e+00 
          0.000e+00 0.000e+00 0.000e+00 
          0.000e+00 0.000e+00 0.000e+00 
          0.000e+00 0.000e+00 0.000e+00 
          0.000e+00 0.000e+00 0.000e+00 
          0.000e+00 0.000e+00 0.000e+00 
          0.000e+00 0.000e+00 0.000e+00 
          0.000e+00 0.000e+00 0.000e+00 
          0.000e+00 0.000e+00 0.000e+00 
          0.000e+00 0.000e+00 0.000e+00 
          0.000e+00 0.000e+00 0.000e+00 
          0.000e+00 0.000e+00 0.000e+00 
          0.000e+00 0.000e+00 0.000e+00 
          0.000e+00 0.000e+00 0.000e+00 
          0.000e+00 0.000e+00 0.000e+00 
          0.000e+00 0.000e+00 0.000e+00 
          0.000e+00 0.000e+00 0.000e+00 
          0.000e+00 0.000e+00 0.000e+00 
          0.000e+00 0.000e+00 0.000e+00 
          0.000e+00 0.000e+00 0.000e+00 
          0.000e+00 0.000e+00 0.000e+00 
          0.000e+00 0.000e+00 0.000e+00 
          0.000e+00 0.000e+00 0.000e+00 
          0.000e+00 0.000e+00 0.000e+00 
          0.000e+00 0.000e+00 0.000e+00 
          0.000e+00 0.000e+00 0.000e+00 
          0.000e+00 0.000e+00 0.000e+00 
          0.000e+00 0.000e+00 0.000e+00 
          0.000e+00 0.000e+00 0.000e+00 
          0.000e+00 0.000e+00 0.000e+00 
          0.000e+00 0.000e+00 0.000e+00 
          0.000e+00 0.000e+00 0.000e+00 
          0.000e+00 0.000e+00 0.000e+00 
          0.000e+00 0.000e+00 0.000e+00 
          0.000e+00 0.000e+00 0.000e+00 
          0.000e+00 0.000e+00 0.000e+00 
          0.000e+00 0.000e+00 0.000e+00 
          0.000e+00 0.000e+00 0.000e+00 
          0.000e+00 0.000e+00 0.000e+00 
          0.000e+00 0.000e+00 0.000e+00 
          0.000e+00 0.000e+00 0.000e+00 
          0.000e+00 0.000e+00 0.000e+00 
          0.000e+00 0.000e+00 0.000e+00 
          0.000e+00 0.000e+00 0.000e+00 
          0.000e+00 0.000e+00 0.000e+00 
          0.000e+00 0.000e+00 0.000e+00 
          0.000e+00 0.000e+00 0.000e+00 
          0.000e+00 0.000e+00 0.000e+00 
          0.000e+00 0.000e+00 0.000e+00 
          0.000e+00 0.000e+00 0.000e+00 
          0.000e+00 0.000e+00 0.000e+00 
          0.000e+00 0.000e+00 0.000e+00 
          0.000e+00 0.000e+00 0.000e+00 
          0.000e+00 0.000e+00 0.000e+00 
          0.000e+00 0.000e+00 0.000e+00 
          0.000e+00 0.000e+00 0.000e+00 
          0.000e+00 0.000e+00 0.000e+00 
          0.000e+00 0.000e+00 0.000e+00 
          0.000e+00 0.000e+00 0.000e+00 
          0.000e+00 0.000e+00 0.000e+00 
          0.000e+00 0.000e+00 0.000e+00 
          0.000e+00 0.000e+00 0.000e+00 
          0.000e+00 0.000e+00 0.000e+00 
          0.000e+00 0.000e+00 0.000e+00 
          0.000e+00 0.000e+00 0.000e+00 
          0.000e+00 0.000e+00 0.000e+00 
          0.000e+00 0.000e+00 0.000e+00 
          0.000e+00 0.000e+00 0.000e+00 
          0.000e+00 0.000e+00 0.000e+00 
          0.000e+00 0.000e+00 0.000e+00 
          0.000e+00 0.000e+00 0.000e+00 
          0.000e+00 0.000e+00 0.000e+00 
          0.000e+00 0.000e+00 0.000e+00 
          0.000e+00 0.000e+00 0.000e+00 
          0.000e+00 0.000e+00 0.000e+00 
          0.000e+00 0.000e+00 0.000e+00 
        </DataArray>
        <DataArray type="Float32" Name="NodeMass" NumberOfComponents="3" format="ascii">
          8.021e+00 8.021e+00 1.000e-08 
          1.311e+01 1.311e+01 1.000e-08 
          1.482e+01 1.482e+01 1.000e-08 
          1.653e+01 1.653e+01 1.000e-08 
          9.729e+00 9.729e+00 1.000e-08 
          1.583e+01 1.583e+01 1.000e-08 
          1.925e+01 1.925e+01 1.000e-08 
          2.176e+01 2.176e+01 1.000e-08 
          2.426e+01 2.426e+01 1.000e-08 
          1.834e+01 1.834e+01 1.000e-08 
          2.419e+01 2.419e+01 1.000e-08 
          2.941e+01 2.941e+01 1.000e-08 
          3.798e+01 3.798e+01 1.000e-08 
          3.707e+01 3.707e+01 1.000e-08 
          2.802e+01 2.802e+01 1.000e-08 
          1.209e+01 1.209e+01 1.000e-08 
          1.470e+01 1.470e+01 1.000e-08 
          3.537e+01 3.537e+01 1.000e-08 
          3.707e+01 3.707e+01 1.000e-08 
          2.802e+01 2.802e+01 1.000e-08 
          2.802e+01 2.802e+01 1.000e-08 
          3.707e+01 3.707e+01 1.000e-08 
          2.802e+01 2.802e+01 1.000e-08 
          1.941e+01 1.941e+01 1.000e-08 
          2.934e+01 2.934e+01 1.000e-08 
          1.941e+01 1.941e+01 1.000e-08 
          6.962e+00 6.962e+00 1.000e-08 
          1.153e+01 1.153e+01 1.000e-08 
          1.304e+01 1.304e+01 1.000e-08 
          1.454e+01 1.454e+01 1.000e-08 
          8.465e+00 8.465e+00 1.000e-08 
          1.469e+01 1.469e+01 1.000e-08 
          1.925e+01 1.925e+01 1.000e-08 
          2.176e+01 2.176e+01 1.000e-08 
          2.426e+01 2.426e+01 1.000e-08 
          1.720e+01 1.720e+01 1.000e-08 
          2.244e+01 2.244e+01 1.000e-08 
          2.941e+01 2.941e+01 1.000e-08 
          3.711e+01 3.711e+01 1.000e-08 
          3.707e+01 3.707e+01 1.000e-08 
          2.627e+01 2.627e+01 1.000e-08 
          1.122e+01 1.122e+01 1.000e-08 
          1.470e+01 1.470e+01 1.000e-08 
          3.362e+01 3.362e+01 1.000e-08 
          3.707e+01 3.707e+01 1.000e-08 
          2.627e+01 2.627e+01 1.000e-08 
          2.627e+01 2.627e+01 1.000e-08 
          3.707e+01 3.707e+01 1.000e-08 
          2.627e+01 2.627e+01 1.000e-08 
          1.754e+01 1.754e+01 1.000e-08 
          2.735e+01 2.735e+01 1.000e-08 
          1.754e+01 1.754e+01 1.000e-08 
          6.962e+00 6.962e+00 1.000e-08 
          1.153e+01 1.153e+01 1.000e-08 
          1.304e+01 1.304e+01 1.000e-08 
          1.454e+01 1.454e+01 1.000e-08 
          8.465e+00 8.465e+00 1.000e-08 
          1.469e+01 1.469e+01 1.000e-08 
          1.925e+01 1.925e+01 1.000e-08 
          2.176e+01 2.176e+01 1.000e-08 
          2.426e+01 2.426e+01 1.000e-08 
          1.720e+01 1.720e+01 1.000e-08 
          2.244e+01 2.244e+01 1.000e-08 
          2.941e+01 2.941e+01 1.000e-08 
          3.711e+01 3.711e+01 1.000e-08 
          3.707e+01 3.707e+01 1.000e-08 
          2.627e+01 2.627e+01 1.000e-08 
          1.122e+01 1.122e+01 1.000e-08 
          1.470e+01 1.470e+01 1.000e-08 
          3.362e+01 3.362e+01 1.000e-08 
          3.707e+01 3.707e+01 1.000e-08 
          2.627e+01 2.627e+01 1.000e-08 
          2.627e+01 2.627e+01 1.000e-08 
          3.707e+01 3.707e+01 1.000e-08 
          2.627e+01 2.627e+01 1.000e-08 
          1.754e+01 1.754e+01 1.000e-08 
          2.735e+01 2.735e+01 1.000e-08 
          1.754e+01 1.754e+01 1.000e-08 
          6.962e+00 6.962e+00 1.000e-08 
          1.153e+01 1.153e+01 1.000e-08 
          1.304e+01 1.304e+01 1.000e-08 