<?xml version="1.0"?>
<VTKFile type="UnstructuredGrid" version="1.0" byte_order="LittleEndian" compressor="vtkZLibDataCompressor">
  <UnstructuredGrid>
    <Piece NumberOfPoints="1045" NumberOfCells="1165">
      <Points>
        <DataArray type="Float32" Name="Points" NumberOfComponents="3" format="ascii">
          0.000e+00 0.000e+00 0.000e+00 
          6.505e+00 0.000e+00 0.000e+00 
          1.301e+01 0.000e+00 0.000e+00 
          2.121e+01 0.000e+00 0.000e+00 
          2.941e+01 0.000e+00 0.000e+00 
          0.000e+00 2.225e+00 0.000e+00 
          2.941e+01 2.225e+00 0.000e+00 
          0.000e+00 9.425e+00 0.000e+00 
          6.505e+00 9.425e+00 0.000e+00 
          1.301e+01 9.425e+00 0.000e+00 
          2.121e+01 9.425e+00 0.000e+00 
          2.941e+01 9.425e+00 0.000e+00 
          0.000e+00 1.662e+01 0.000e+00 
          6.505e+00 1.662e+01 0.000e+00 
          1.301e+01 1.662e+01 0.000e+00 
          2.121e+01 1.662e+01 0.000e+00 
          2.941e+01 1.662e+01 0.000e+00 
          1.301e+01 2.382e+01 0.000e+00 
          2.121e+01 2.382e+01 0.000e+00 
          2.941e+01 2.382e+01 0.000e+00 
          1.301e+01 3.102e+01 0.000e+00 
          2.121e+01 3.102e+01 0.000e+00 
          2.941e+01 3.102e+01 0.000e+00 
          0.000e+00 0.000e+00 4.500e+00 
          6.505e+00 0.000e+00 4.500e+00 
          1.301e+01 0.000e+00 4.500e+00 
          2.121e+01 0.000e+00 4.500e+00 
          2.941e+01 0.000e+00 4.500e+00 
          0.000e+00 2.225e+00 4.500e+00 
          2.941e+01 2.225e+00 4.500e+00 
          0.000e+00 9.425e+00 4.500e+00 
          6.505e+00 9.425e+00 4.500e+00 
          1.301e+01 9.425e+00 4.500e+00 
          2.121e+01 9.425e+00 4.500e+00 
          2.941e+01 9.425e+00 4.500e+00 
          0.000e+00 1.662e+01 4.500e+00 
          6.505e+00 1.662e+01 4.500e+00 
          1.301e+01 1.662e+01 4.500e+00 
          2.121e+01 1.662e+01 4.500e+00 
          2.941e+01 1.662e+01 4.500e+00 
          1.301e+01 2.382e+01 4.500e+00 
          2.121e+01 2.382e+01 4.500e+00 
          2.941e+01 2.382e+01 4.500e+00 
          1.301e+01 3.102e+01 4.500e+00 
          2.121e+01 3.102e+01 4.500e+00 
          2.941e+01 3.102e+01 4.500e+00 
          0.000e+00 0.000e+00 7.600e+00 
          6.505e+00 0.000e+00 7.600e+00 
          1.301e+01 0.000e+00 7.600e+00 
          2.121e+01 0.000e+00 7.600e+00 
          2.941e+01 0.000e+00 7.600e+00 
          0.000e+00 2.225e+00 7.600e+00 
          2.941e+01 2.225e+00 7.600e+00 
          0.000e+00 9.425e+00 7.600e+00 
          6.505e+00 9.425e+00 7.600e+00 
          1.301e+01 9.425e+00 7.600e+00 
          2.121e+01 9.425e+00 7.600e+00 
          2.941e+01 9.425e+00 7.600e+00 
          0.000e+00 1.662e+01 7.600e+00 
          6.505e+00 1.662e+01 7.600e+00 
          1.301e+01 1.662e+01 7.600e+00 
          2.121e+01 1.662e+01 7.600e+00 
          2.941e+01 1.662e+01 7.600e+00 
          1.301e+01 2.382e+01 7.600e+00 
          2.121e+01 2.382e+01 7.600e+00 
          2.941e+01 2.382e+01 7.600e+00 
          1.301e+01 3.102e+01 7.600e+00 
          2.121e+01 3.102e+01 7.600e+00 
          2.941e+01 3.102e+01 7.600e+00 
          0.000e+00 0.000e+00 1.070e+01 
          6.505e+00 0.000e+00 1.070e+01 
          1.301e+01 0.000e+00 1.070e+01 
          2.121e+01 0.000e+00 1.070e+01 
          2.941e+01 0.000e+00 1.070e+01 
          0.000e+00 2.225e+00 1.070e+01 
          2.941e+01 2.225e+00 1.070e+01 
          0.000e+00 9.425e+00 1.070e+01 
          6.505e+00 9.425e+00 1.070e+01 
          1.301e+01 9.425e+00 1.070e+01 
          2.121e+01 9.425e+00 1.070e+01 
          2.941e+01 9.425e+00 1.070e+01 
          0.000e+00 1.662e+01 1.070e+01 
          6.505e+00 1.662e+01 1.070e+01 
          1.301e+01 1.662e+01 1.070e+01 
          2.121e+01 1.662e+01 1.070e+01 
          2.941e+01 1.662e+01 1.070e+01 
          1.301e+01 2.382e+01 1.070e+01 
          2.121e+01 2.382e+01 1.070e+01 
          2.941e+01 2.382e+01 1.070e+01 
          1.301e+01 3.102e+01 1.070e+01 
          2.121e+01 3.102e+01 1.070e+01 
          2.941e+01 3.102e+01 1.070e+01 
          0.000e+00 0.000e+00 1.380e+01 
          6.505e+00 0.000e+00 1.380e+01 
          1.301e+01 0.000e+00 1.380e+01 
          2.121e+01 0.000e+00 1.380e+01 
          2.941e+01 0.000e+00 1.380e+01 
          0.000e+00 2.225e+00 1.380e+01 
          2.941e+01 2.225e+00 1.380e+01 
          0.000e+00 9.425e+00 1.380e+01 
          6.505e+00 9.425e+00 1.380e+01 
          1.301e+01 9.425e+00 1.380e+01 
          2.121e+01 9.425e+00 1.380e+01 
          2.941e+01 9.425e+00 1.380e+01 
          0.000e+00 1.662e+01 1.380e+01 
          6.505e+00 1.662e+01 1.380e+01 
          1.301e+01 1.662e+01 1.380e+01 
          2.121e+01 1.662e+01 1.380e+01 
          2.941e+01 1.662e+01 1.380e+01 
          1.301e+01 2.382e+01 1.380e+01 
          2.121e+01 2.382e+01 1.380e+01 
          2.941e+01 2.382e+01 1.380e+01 
          1.301e+01 3.102e+01 1.380e+01 
          2.121e+01 3.102e+01 1.380e+01 
          2.941e+01 3.102e+01 1.380e+01 
          0.000e+00 0.000e+00 1.690e+01 
          6.505e+00 0.000e+00 1.690e+01 
          1.301e+01 0.000e+00 1.690e+01 
          2.121e+01 0.000e+00 1.690e+01 
          2.941e+01 0.000e+00 1.690e+01 
          0.000e+00 2.225e+00 1.690e+01 
          2.941e+01 2.225e+00 1.690e+01 
          0.000e+00 9.425e+00 1.690e+01 
          6.505e+00 9.425e+00 1.690e+01 
          1.301e+01 9.425e+00 1.690e+01 
          2.121e+01 9.425e+00 1.690e+01 
          2.941e+01 9.425e+00 1.690e+01 
          0.000e+00 1.662e+01 1.690e+01 
          6.505e+00 1.662e+01 1.690e+01 
          1.301e+01 1.662e+01 1.690e+01 
          2.121e+01 1.662e+01 1.690e+01 
          2.941e+01 1.662e+01 1.690e+01 
          1.301e+01 2.382e+01 1.690e+01 
          2.121e+01 2.382e+01 1.690e+01 
          2.941e+01 2.382e+01 1.690e+01 
          1.301e+01 3.102e+01 1.690e+01 
          2.121e+01 3.102e+01 1.690e+01 
          2.941e+01 3.102e+01 1.690e+01 
          0.000e+00 0.000e+00 2.000e+01 
          6.505e+00 0.000e+00 2.000e+01 
          1.301e+01 0.000e+00 2.000e+01 
          2.121e+01 0.000e+00 2.000e+01 
          2.941e+01 0.000e+00 2.000e+01 
          0.000e+00 2.225e+00 2.000e+01 
          2.941e+01 2.225e+00 2.000e+01 
          0.000e+00 9.425e+00 2.000e+01 
          6.505e+00 9.425e+00 2.000e+01 
          1.301e+01 9.425e+00 2.000e+01 
          2.121e+01 9.425e+00 2.000e+01 
          2.941e+01 9.425e+00 2.000e+01 
          0.000e+00 1.662e+01 2.000e+01 
          6.505e+00 1.662e+01 2.000e+01 
          1.301e+01 1.662e+01 2.000e+01 
          2.121e+01 1.662e+01 2.000e+01 
          2.941e+01 1.662e+01 2.000e+01 
          1.301e+01 2.382e+01 2.000e+01 
          2.121e+01 2.382e+01 2.000e+01 
          2.941e+01 2.382e+01 2.000e+01 
          1.301e+01 3.102e+01 2.000e+01 
          2.121e+01 3.102e+01 2.000e+01 
          2.941e+01 3.102e+01 2.000e+01 
          0.000e+00 0.000e+00 2.310e+01 
          6.505e+00 0.000e+00 2.310e+01 
          1.301e+01 0.000e+00 2.310e+01 
          2.121e+01 0.000e+00 2.310e+01 
          2.941e+01 0.000e+00 2.310e+01 
          0.000e+00 2.225e+00 2.310e+01 
          2.941e+01 2.225e+00 2.310e+01 
          0.000e+00 9.425e+00 2.310e+01 
          6.505e+00 9.425e+00 2.310e+01 
          1.301e+01 9.425e+00 2.310e+01 
          2.121e+01 9.425e+00 2.310e+01 
          2.941e+01 9.425e+00 2.310e+01 
          0.000e+00 1.662e+01 2.310e+01 
          6.505e+00 1.662e+01 2.310e+01 
          1.301e+01 1.662e+01 2.310e+01 
          2.121e+01 1.662e+01 2.310e+01 
          2.941e+01 1.662e+01 2.310e+01 
          1.301e+01 2.382e+01 2.310e+01 
          2.121e+01 2.382e+01 2.310e+01 
          2.941e+01 2.382e+01 2.310e+01 
          1.301e+01 3.102e+01 2.310e+01 
          2.121e+01 3.102e+01 2.310e+01 
          2.941e+01 3.102e+01 2.310e+01 
          0.000e+00 0.000e+00 2.620e+01 
          6.505e+00 0.000e+00 2.620e+01 
          1.301e+01 0.000e+00 2.620e+01 
          2.121e+01 0.000e+00 2.620e+01 
          2.941e+01 0.000e+00 2.620e+01 
          0.000e+00 2.225e+00 2.620e+01 
          2.941e+01 2.225e+00 2.620e+01 
          0.000e+00 9.425e+00 2.620e+01 
          6.505e+00 9.425e+00 2.620e+01 
          1.301e+01 9.425e+00 2.620e+01 
          2.121e+01 9.425e+00 2.620e+01 
          2.941e+01 9.425e+00 2.620e+01 
          0.000e+00 1.662e+01 2.620e+01 
          6.505e+00 1.662e+01 2.620e+01 
          1.301e+01 1.662e+01 2.620e+01 
          2.121e+01 1.662e+01 2.620e+01 
          2.941e+01 1.662e+01 2.620e+01 
          1.301e+01 2.382e+01 2.620e+01 
          2.121e+01 2.382e+01 2.620e+01 
          2.941e+01 2.382e+01 2.620e+01 
          1.301e+01 3.102e+01 2.620e+01 
          2.121e+01 3.102e+01 2.620e+01 
          2.941e+01 3.102e+01 2.620e+01 
          0.000e+00 0.000e+00 2.930e+01 
          6.505e+00 0.000e+00 2.930e+01 
          1.301e+01 0.000e+00 2.930e+01 
          2.121e+01 0.000e+00 2.930e+01 
          2.941e+01 0.000e+00 2.930e+01 
          0.000e+00 2.225e+00 2.930e+01 
          2.941e+01 2.225e+00 2.930e+01 
          0.000e+00 9.425e+00 2.930e+01 
          6.505e+00 9.425e+00 2.930e+01 
          1.301e+01 9.425e+00 2.930e+01 
          2.121e+01 9.425e+00 2.930e+01 
          2.941e+01 9.425e+00 2.930e+01 
          0.000e+00 1.662e+01 2.930e+01 
          6.505e+00 1.662e+01 2.930e+01 
          1.301e+01 1.662e+01 2.930e+01 
          2.121e+01 1.662e+01 2.930e+01 
          2.941e+01 1.662e+01 2.930e+01 
          1.301e+01 2.382e+01 2.930e+01 
          2.121e+01 2.382e+01 2.930e+01 
          2.941e+01 2.382e+01 2.930e+01 
          1.301e+01 3.102e+01 2.930e+01 
          2.121e+01 3.102e+01 2.930e+01 
          2.941e+01 3.102e+01 2.930e+01 
          0.000e+00 0.000e+00 3.240e+01 
          6.505e+00 0.000e+00 3.240e+01 
          1.301e+01 0.000e+00 3.240e+01 
          2.121e+01 0.000e+00 3.240e+01 
          2.941e+01 0.000e+00 3.240e+01 
          0.000e+00 2.225e+00 3.240e+01 
[...]
      <PointData>
        <DataArray type="Int32" Name="NodeTag" format="ascii">
          1000
          1001
          1002
          1003
          1004
          1005
          1009
          1010
          1011
          1012
          1013
          1014
          1015
          1016
          1017
          1018
          1019
          1020
          1021
          1022
          1023
          1024
          1025
          11000
          11001
          11002
          11003
          11004
          11005
          11009
          11010
          11011
          11012
          11013
          11014
          11015
          11016
          11017
          11018
          11019
          11020
          11021
          11022
          11023
          11024
          11025
          21000
          21001
          21002
          21003
          21004
          21005
          21009
          21010
          21011
          21012
          21013
          21014
          21015
          21016
          21017
          21018
          21019
          21020
          21021
          21022
          21023
          21024
          21025
          31000
          31001
          31002
          31003
          31004
          31005
          31009
          31010
          31011
          31012
          31013
          31014
          31015
          31016
          31017
          31018
          31019
          31020
          31021
          31022
          31023
          31024
          31025
          41000
          41001
          41002
          41003
          41004
          41005
          41009
          41010
          41011
          41012
          41013
          41014
          41015
          41016
          41017
          41018
          41019
          41020
          41021
          41022
          41023
          41024
          41025
          51000
          51001
          51002
          51003
          51004
          51005
          51009
          51010
          51011
          51012
          51013
          51014
          51015
          51016
          51017
          51018
          51019
          51020
          51021
          51022
          51023
          51024
          51025
          61000
          61001
          61002
          61003
          61004
          61005
          61009
          61010
          61011
          61012
          61013
          61014
          61015
          61016
          61017
          61018
          61019
          61020
          61021
          61022
          61023
          61024
          61025
          71000
          71001
          71002
          71003
          71004
          71005
          71009
          71010
          71011
          71012
          71013
          71014
          71015
          71016
          71017
          71018
          71019
          71020
          71021
          71022
          71023
          71024
          71025
          81000
          81001
          81002
          81003
          81004
          81005
          81009
          81010
          81011
          81012
          81013
          81014
          81015
          81016
          81017
          81018
          81019
          81020
          81021
          81022
          81023
          81024
          81025
          91000
          91001
          91002
          91003
          91004
          91005
          91009
          91010
          91011
          91012
          91013
          91014
          91015
          91016
          91017
          91018
          91019
          91020
          91021
          91022
          91023
          91024
          91025
          101000
          101001
          101002
          101003
          101004
          101005
          101009
          101010
          101011
          101012
          101013
          101014
          101015
          101016
          101017
          101018
          101019
          101020
          101021
          101022
          101023
          101024
          101025
          110001
          110002
          110004
          110011
          110012
          110014
          110021
          110022
          110023
          110024
          110031
          110032
          110033
          110034
          110041
          110042
          110043
          110051
          110052
          110091
          110092
          110094
          110101
          110102
          110103
          110104
          110111
          110112
          110121
          110122
          110131
          110132
          110134
          110141
          110142
          110143
          110144
          110151
          110152
          110153
          110161
          110162
          110164
          110171
          110172
          110173
          110181
          110182
          110183
          110184
          110191
          110192
          110193
          110194
          110201
          110202
          110211
          110212
          110213
          110221
          110222
          110223
          110231
          110232
          110234
          110241
          110242
          110243
          110244
          110251
          110252
          110253
          111000
          111001
          111002
          111003
          111004
          111005
          111009
          111010
          111011
          111012
          111013
          111014
          111015
          111016
          111017
          111018
          111019
          111020
          111021
          111022
          111023
          111024
          111025
          210001
          210002
          210004
          210011
          210012
          210014
          210021
          210022
          210023
          210024
          210031
          210032
          210033
          210034
          210041
          210042
          210043
          210051
          210052
          210091
          210092
          210094
          210101
          210102
          210103
          210104
          210111
          210112
          210121
          210122
          210131
          210132
          210134
          210141
          210142
          210143
          210144
          210151
          210152
          210153
          210161
          210162
          210164
          210171
          210172
          210173
          210181
          210182
          210183
          210184
          210191
          210192
          210193
          210194
          210201
          210202
          210211
          210212
          210213
          210221
          210222
          210223
          210231
          210232
          210234
          210241
          210242
          210243
          210244
          210251
          210252
          210253
          310001
          310002
          310004
          310011
          310012
          310014
          310021
          310022
          310023
          310024
          310031
          310032
          310033
          310034
          310041
          310042
          310043
          310051
          310052
          310091
          310092
          310094
          310101
          310102
          310103
          310104
          310111
          310112
          310121
          310122
          310131
          310132
          310134
          310141
          310142
          310143
          310144
          310151
          310152
          310153
          310161
          310162
          310164
          310171
          310172
          310173
          310181
          310182
          310183
          310184
          310191
          310192
          310193
          310194
          310201
          310202
          310211
          310212
          310213
          310221
          310222
          310223
          310231
          310232
          310234
          310241
          310242
          310243
          310244
          310251
          310252
          310253
          410001
          410002
          410004
          410011
          410012
          410014
          410021
          410022
          410023
          410024
          410031
          410032
          410033
          410034
          410041
          410042
          410043
          410051
          410052
          410091
          410092
          410094
          410101
          410102
          410103
          410104
          410111
          410112
          410121
          410122
          410131
          410132
          410134
          410141
          410142
          410143
          410144
          410151
          410152
          410153
          410161
          410162
          410164
          410171
          410172
          410173
          410181
          410182
          410183
          410184
          410191
          410192
          410193
          410194
          410201
          410202
          410211
          410212
          410213
          410221
          410222
          410223
          410231
          410232
          410234
          410241
          410242
          410243
          410244
          410251
          410252
          410253
          510001
          510002
          510004
          510011
          510012
          510014
          510021
          510022
          510023
          510024
          510031
          510032
          510033
          510034
          510041
          510042
          510043
          510051
          510052
          510091
          510092
          510094
          510101
          510102
          510103
          510104
          510111
          510112
          510121
          510122
          510131
          510132
          510134
          510141
          510142
          510143
          510144
          510151
          510152
          510153
          510161
          510162
          510164
          510171
          510172
          510173
          510181
          510182
          510183
          510184
          510191
          510192
          510193
          510194
          510201
          510202
          510211
          510212
          510213
          510221
          510222
          510223
          510231
          510232
          510234
          510241
          510242
          510243
          510244
          510251
          510252
          510253
          610001
          610002
          610004
          610011
          610012
          610014
          610021
          610022
          610023
          610024
          610031
          610032
          610033
          610034
          610041
          610042
          610043
          610051
          610052
          610091
          610092
          610094
          610101
          610102
          610103
          610104
          610111
          610112
          610121
          610122
          610131
          610132
          610134
          610141
          610142
          610143
          610144
          610151
          610152
          610153
          610161
          610162
          610164
          610171
          610172
          610173
          610181
          610182
          610183
          610184
          610191
          610192
          610193
          610194
          610201
          610202
          610211
          610212
          610213
          610221
          610222
          610223
          610231
          610232
          610234
          610241
          610242
          610243
          610244
          610251
          610252
          610253
          710001
          710002
          710004
          710011
          710012
          710014
          710021
          710022
          710023
          710024
          710031
          710032
          710033
          710034
          710041
          710042
          710043
          710051
          710052
          710091
          710092
          710094
          710101
          710102
          710103
          710104
          710111
          710112
          710121
          710122
          710131
          710132
          710134
          710141
          710142
          710143
          710144
          710151
          710152
          710153
          710161
          710162
          710164
          710171
          710172
          710173
          710181
          710182
          710183
          710184
          710191
          710192
          710193
          710194
          710201
          710202
          710211
          710212
          710213
          710221
          710222
          710223
          710231
          710232
          710234
          710241
          710242
          710243
          710244
          710251
          710252
          710253
          810001
          810002
          810004
          810011
          810012
          810014
          810021
          810022
          810023
          810024
          810031
          810032
          810033
          810034
          810041
          810042
          810043
          810051
          810052
          810091
          810092
          810094
          810101
          810102
          810103
          810104
          810111
          810112
          810121
          810122
          810131
          810132
          810134
          810141
          810142
          810143
          810144
          810151
          810152
          810153
          810161
          810162
          810164
          810171
          810172
          810173
          810181
          810182
          810183
          810184
          810191
          810192
          810193
          810194
          810201
          810202
          810211
          810212
          810213
          810221
          810222
          810223
          810231
          810232
          810234
          810241
          810242
          810243
          810244
          810251
          810252
          810253
          910001
          910002
          910004
          910011
          910012
          910014
          910021
          910022
          910023
          910024
          910031
          910032
          910033
          910034
          910041
          910042
          910043
          910051
          910052
          910091
          910092
          910094
          910101
          910102
          910103
          910104
          910111
          910112
          910121
          910122
          910131
          910132
          910134
          910141
          910142
          910143
          910144
          910151
          910152
          910153
          910161
          910162
          910164
          910171
          910172
          910173
          910181
          910182
          910183
          910184
          910191
          910192
          910193
          910194
          910201
          910202
          910211
          910212
          910213
          910221
          910222
          910223
          910231
          910232
          910234
          910241
          910242
          910243
          910244
          910251
          910252
          910253
          1010001
          1010002
          1010004
          1010011
          1010012
          1010014
          1010021
          1010022
          1010023
          1010024
          1010031
          1010032
          1010033
          1010034
          1010041
          1010042
          1010043
          1010051
          1010052
          1010091
          1010092
          1010094
          1010101
          1010102
          1010103
          1010104
          1010111
          1010112
          1010121
          1010122
          1010131
          1010132
          1010134
          1010141
          1010142
          1010143
          1010144
          1010151
          1010152
          1010153
          1010161
          1010162
          1010164
          1010171
          1010172
          1010173
          1010181
          1010182
          1010183
          1010184
          1010191
          1010192
          1010193
          1010194
          1010201
          1010202
          1010211
          1010212
          1010213
          1010221
          1010222
          1010223
          1010231
          1010232
          1010234
          1010241
          1010242
          1010243
          1010244
          1010251
          1010252
          1010253
          1110002
          1110004
          1110012
          1110014
          1110022
          1110023
          1110024
          1110032
          1110033
          1110034
          1110042
          1110043
          1110052
          1110092
          1110094
          1110102
          1110103
          1110104
          1110112
          1110122
          1110132
          1110134
          1110142
          1110143
          1110144
          1110152
          1110153
          1110162
          1110164
          1110172
          1110173
          1110182
          1110183
          1110184
          1110192
          1110193
          1110194
          1110202
          1110212
          1110213
          1110222
          1110223
          1110232
          1110234
          1110242
          1110243
          1110244
          1110252
          1110253
        </DataArray>
        <DataArray type="Float32" Name="Reaction" NumberOfComponents="3" format="ascii">
          0.000e+00 0.000e+00 0.000e+00 
          0.000e+00 0.000e+00 0.000e+00 
          0.000e+00 0.000e+00 0.000e+00 
          0.000e+00 0.000e+00 0.000e+00 
          0.000e+00 0.000e+00 0.000e+00 
          0.000e+00 0.000e+00 0.000e+00 
          0.000e+00 0.000e+00 0.000e+00 
          0.000e+00 0.000e+00 0.000e+00 
          0.000e+00 0.000e+00 0.000e+00 
          0.000e+00 0.000e+00 0.000e+00 
          0.000e+00 0.000e+00 0.000e+00 
          0.000e+00 0.000e+00 0.000e+00 
          0.000e+00 0.000e+00 0.000e+00 
          0.000e+00 0.000e+00 0.000e+00 
          0.000e+00 0.000e+00 0.000e+00 
          0.000e+00 0.000e+00 0.000e+00 
          0.000e+00 0.000e+00 0.000e+00 
          0.000e+00 0.000e+00 0.000e+00 
          0.000e+00 0.000e+00 0.000e+00 
          0.000e+00 0.000e+00 0.000e+00 
          0.000e+00 0.000e+00 0.000e+00 
          0.000e+00 0.000e+00 0.000e+00 
          0.000e+00 0.000e+00 0.000e+00 
          0.000e+00 0.000e+00 0.000e+00 
          0.000e+00 0.000e+00 0.000e+00 
          0.000e+00 0.000e+00 0.000e+00 
          0.000e+00 0.000e+00 0.000e+00 
          0.000e+00 0.000e+00 0.000e+00 
          0.000e+00 0.000e+00 0.000e+00 
          0.000e+00 0.000e+00 0.000e+00 
          0.000e+00 0.000e+00 0.000e+00 
          0.000e+00 0.000e+00 0.000e+00 
          0.000e+00 0.000e+00 0.000e+00 
          0.000e+00 0.000e+00 0.000e+00 
          0.000e+00 0.000e+00 0.000e+00 
          0.000e+00 0.000e+00 0.000e+00 
          0.000e+00 0.000e+00 0.000e+00 
          0.000e+00 0.000e+00 0.000e+00 
          0.000e+00 0.000e+00 0.000e+00 
          0.000e+00 0.000e+00 0.000e+00 
          0.000e+00 0.000e+00 0.000e+00 
          0.000e+00 0.000e+00 0.000e+00 
          0.000e+00 0.000e+00 0.000e+00 
          0.000e+00 0.000e+00 0.000e+00 
          0.000e+00 0.000e+00 0.000e+00 
          0.000e+00 0.000e+00 0.000e+00 
          0.000e+00 0.000e+00 0.000e+00 
          0.000e+00 0.000e+00 0.000e+00 
          0.000e+00 0.000e+00 0.000e+00 
          0.000e+00 0.000e+00 0.000e+00 
          0.000e+00 0.000e+00 0.000e+00 
          0.000e+00 0.000e+00 0.000e+00 
          0.000e+00 0.000e+00 0.000e+00 