<?xml version="1.0"?>
<VTKFile type="UnstructuredGrid" version="1.0" byte_order="LittleEndian" compressor="vtkZLibDataCompressor">
  <UnstructuredGrid>
    <Piece NumberOfPoints="120" NumberOfCells="110">
      <Points>
        <DataArray type="Float32" Name="Points" NumberOfComponents="3" format="ascii">
          0.000e+00 3.625e+00 0.000e+00 
          2.121e+01 3.625e+00 0.000e+00 
          2.579e+01 5.825e+00 0.000e+00 
          1.664e+01 9.150e+00 0.000e+00 
          0.000e+00 1.289e+01 0.000e+00 
          1.301e+01 1.289e+01 0.000e+00 
          1.664e+01 1.289e+01 0.000e+00 
          1.664e+01 1.662e+01 0.000e+00 
          1.664e+01 3.102e+01 0.000e+00 
          2.579e+01 3.102e+01 0.000e+00 
          0.000e+00 3.625e+00 4.500e+00 
          2.121e+01 3.625e+00 4.500e+00 
          2.579e+01 5.825e+00 4.500e+00 
          1.664e+01 9.150e+00 4.500e+00 
          0.000e+00 1.289e+01 4.500e+00 
          1.301e+01 1.289e+01 4.500e+00 
          1.664e+01 1.289e+01 4.500e+00 
          1.664e+01 1.662e+01 4.500e+00 
          1.664e+01 3.102e+01 4.500e+00 
          2.579e+01 3.102e+01 4.500e+00 
          0.000e+00 3.625e+00 7.600e+00 
          2.121e+01 3.625e+00 7.600e+00 
          2.579e+01 5.825e+00 7.600e+00 
          1.664e+01 9.150e+00 7.600e+00 
          0.000e+00 1.289e+01 7.600e+00 
          1.301e+01 1.289e+01 7.600e+00 
          1.664e+01 1.289e+01 7.600e+00 
          1.664e+01 1.662e+01 7.600e+00 
          1.664e+01 3.102e+01 7.600e+00 
          2.579e+01 3.102e+01 7.600e+00 
          0.000e+00 3.625e+00 1.070e+01 
          2.121e+01 3.625e+00 1.070e+01 
          2.579e+01 5.825e+00 1.070e+01 
          1.664e+01 9.150e+00 1.070e+01 
          0.000e+00 1.289e+01 1.070e+01 
          1.301e+01 1.289e+01 1.070e+01 
          1.664e+01 1.289e+01 1.070e+01 
          1.664e+01 1.662e+01 1.070e+01 
          1.664e+01 3.102e+01 1.070e+01 
          2.579e+01 3.102e+01 1.070e+01 
          0.000e+00 3.625e+00 1.380e+01 
          2.121e+01 3.625e+00 1.380e+01 
          2.579e+01 5.825e+00 1.380e+01 
          1.664e+01 9.150e+00 1.380e+01 
          0.000e+00 1.289e+01 1.380e+01 
          1.301e+01 1.289e+01 1.380e+01 
          1.664e+01 1.289e+01 1.380e+01 
          1.664e+01 1.662e+01 1.380e+01 
          1.664e+01 3.102e+01 1.380e+01 
          2.579e+01 3.102e+01 1.380e+01 
          0.000e+00 3.625e+00 1.690e+01 
          2.121e+01 3.625e+00 1.690e+01 
          2.579e+01 5.825e+00 1.690e+01 
          1.664e+01 9.150e+00 1.690e+01 
          0.000e+00 1.289e+01 1.690e+01 
          1.301e+01 1.289e+01 1.690e+01 
          1.664e+01 1.289e+01 1.690e+01 
          1.664e+01 1.662e+01 1.690e+01 
          1.664e+01 3.102e+01 1.690e+01 
          2.579e+01 3.102e+01 1.690e+01 
          0.000e+00 3.625e+00 2.000e+01 
          2.121e+01 3.625e+00 2.000e+01 
          2.579e+01 5.825e+00 2.000e+01 
          1.664e+01 9.150e+00 2.000e+01 
          0.000e+00 1.289e+01 2.000e+01 
          1.301e+01 1.289e+01 2.000e+01 
          1.664e+01 1.289e+01 2.000e+01 
          1.664e+01 1.662e+01 2.000e+01 
          1.664e+01 3.102e+01 2.000e+01 
          2.579e+01 3.102e+01 2.000e+01 
          0.000e+00 3.625e+00 2.310e+01 
          2.121e+01 3.625e+00 2.310e+01 
          2.579e+01 5.825e+00 2.310e+01 
          1.664e+01 9.150e+00 2.310e+01 
          0.000e+00 1.289e+01 2.310e+01 
          1.301e+01 1.289e+01 2.310e+01 
          1.664e+01 1.289e+01 2.310e+01 
          1.664e+01 1.662e+01 2.310e+01 
          1.664e+01 3.102e+01 2.310e+01 
          2.579e+01 3.102e+01 2.310e+01 
          0.000e+00 3.625e+00 2.620e+01 
          2.121e+01 3.625e+00 2.620e+01 
          2.579e+01 5.825e+00 2.620e+01 
          1.664e+01 9.150e+00 2.620e+01 
          0.000e+00 1.289e+01 2.620e+01 
          1.301e+01 1.289e+01 2.620e+01 
          1.664e+01 1.289e+01 2.620e+01 
          1.664e+01 1.662e+01 2.620e+01 
          1.664e+01 3.102e+01 2.620e+01 
          2.579e+01 3.102e+01 2.620e+01 
          0.000e+00 3.625e+00 2.930e+01 
          2.121e+01 3.625e+00 2.930e+01 
          2.579e+01 5.825e+00 2.930e+01 
          1.664e+01 9.150e+00 2.930e+01 
          0.000e+00 1.289e+01 2.930e+01 
          1.301e+01 1.289e+01 2.930e+01 
          1.664e+01 1.289e+01 2.930e+01 
          1.664e+01 1.662e+01 2.930e+01 
          1.664e+01 3.102e+01 2.930e+01 
          2.579e+01 3.102e+01 2.930e+01 
          0.000e+00 3.625e+00 3.240e+01 
          2.121e+01 3.625e+00 3.240e+01 
          2.579e+01 5.825e+00 3.240e+01 
          1.664e+01 9.150e+00 3.240e+01 
          0.000e+00 1.289e+01 3.240e+01 
          1.301e+01 1.289e+01 3.240e+01 
          1.664e+01 1.289e+01 3.240e+01 
          1.664e+01 1.662e+01 3.240e+01 
          1.664e+01 3.102e+01 3.240e+01 
          2.579e+01 3.102e+01 3.240e+01 
          0.000e+00 3.625e+00 3.550e+01 
          2.121e+01 3.625e+00 3.550e+01 
          2.579e+01 5.825e+00 3.550e+01 
          1.664e+01 9.150e+00 3.550e+01 
          0.000e+00 1.289e+01 3.550e+01 
          1.301e+01 1.289e+01 3.550e+01 
          1.664e+01 1.289e+01 3.550e+01 
          1.664e+01 1.662e+01 3.550e+01 
          1.664e+01 3.102e+01 3.550e+01 
          2.579e+01 3.102e+01 3.550e+01 
        </DataArray>
      </Points>
      <Cells>
        <DataArray type="Int32" Name="connectivity" format="ascii">
          0 10 
          1 11 
          2 12 
          3 13 
          4 14 
          5 15 
          6 16 
          7 17 
          8 18 
          9 19 
          10 20 
          11 21 
          12 22 
          13 23 
          14 24 
          15 25 
          16 26 
          17 27 
          18 28 
          19 29 
          20 30 
          21 31 
          22 32 
          23 33 
          24 34 
          25 35 
          26 36 
          27 37 
          28 38 
          29 39 
          30 40 
          31 41 
          32 42 
          33 43 
          34 44 
          35 45 
          36 46 
          37 47 
          38 48 
          39 49 
          40 50 
          41 51 
          42 52 
          43 53 
          44 54 
          45 55 
          46 56 
          47 57 
          48 58 
          49 59 
          50 60 
          51 61 
          52 62 
          53 63 
          54 64 
          55 65 
          56 66 
          57 67 
          58 68 
          59 69 
          60 70 
          61 71 
          62 72 
          63 73 
          64 74 
          65 75 
          66 76 
          67 77 
          68 78 
          69 79 
          70 80 
          71 81 
          72 82 
          73 83 
          74 84 
          75 85 
          76 86 
          77 87 
          78 88 
          79 89 
          80 90 
          81 91 
          82 92 
          83 93 
          84 94 
          85 95 
          86 96 
          87 97 
          88 98 
          89 99 
          90 100 
          91 101 
          92 102 
          93 103 
          94 104 
          95 105 
          96 106 
          97 107 
          98 108 
          99 109 
          100 110 
          101 111 
          102 112 
          103 113 
          104 114 
          105 115 
          106 116 
          107 117 
          108 118 
          109 119 
        </DataArray>
        <DataArray type="Int32" Name="offsets" format="ascii">
          2
          4
          6
          8
          10
          12
          14
          16
          18
          20
          22
          24
          26
          28
          30
          32
          34
          36
          38
          40
          42
          44
          46
          48
          50
          52
          54
          56
          58
          60
          62
          64
          66
          68
          70
          72
          74
          76
          78
          80
          82
          84
          86
          88
          90
          92
          94
          96
          98
          100
          102
          104
          106
          108
          110
          112
          114
          116
          118
          120
          122
          124
          126
          128
          130
          132
          134
          136
          138
          140
          142
          144
          146
          148
          150
          152
          154
          156
          158
          160
          162
          164
          166
          168
          170
          172
          174
          176
          178
          180
          182
          184
          186
          188
          190
          192
          194
          196
          198
          200
          202
          204
          206
          208
          210
          212
          214
          216
          218
          220
        </DataArray>
        <DataArray type="Int32" Name="types" format="ascii">
          3
          3
          3
          3
          3
          3
          3
          3
          3
          3
          3
          3
          3
          3
          3
          3
          3
          3
          3
          3
          3
          3
          3
          3
          3
          3
          3
          3
          3
          3
          3
          3
          3
          3
          3
          3
          3
          3
          3
          3
          3
          3
          3
          3
          3
          3
          3
          3
          3
          3
          3
          3
          3
          3
          3
          3
          3
          3
          3
          3
          3
          3
          3
          3
          3
          3
          3
          3
          3
          3
          3
          3
          3
          3
          3
          3
          3
          3
          3
          3
          3
          3
          3
          3
          3
          3
          3
          3
          3
          3
          3
          3
          3
          3
          3
          3
          3
          3
          3
          3
          3
          3
          3
          3
          3
          3
          3
          3
          3
          3
        </DataArray>
      </Cells>
      <PointData>
        <DataArray type="Int32" Name="NodeTag" format="ascii">
          1014
          1023
          1040
          1075
          1098
          1101
          1103
          1145
          1167
          1174
          11014
          11023
          11040
          11075
          11098
          11101
          11103
          11145
          11167
          11174
          21014
          21023
          21040
          21075
          21098
          21101
          21103
          21145
          21167
          21174
          31014
          31023
          31040
          31075
          31098
          31101
          31103
          31145
          31167
          31174
          41014
          41023
          41040
          41075
          41098
          41101
          41103
          41145
          41167
          41174
          51014
          51023
          51040
          51075
          51098
          51101
          51103
          51145
          51167
          51174
          61014
          61023
          61040
          61075
          61098
          61101
          61103
          61145
          61167
          61174
          71014
          71023
          71040
          71075
          71098
          71101
          71103
          71145
          71167
          71174
          81014
          81023
          81040
          81075
          81098
          81101
          81103
          81145
          81167
          81174
          91014
          91023
          91040
          91075
          91098
          91101
          91103
          91145
          91167
          91174
          101014
          101023
          101040
          101075
          101098
          101101
          101103
          101145
          101167
          101174
          111014
          111023
          111040
          111075
          111098
          111101
          111103
          111145
          111167
          111174
        </DataArray>
        <DataArray type="Float32" Name="Reaction" NumberOfComponents="3" format="ascii">
          -1.264e+02 5.227e+03 2.628e+04 
          -2.067e+02 -7.022e+03 -3.538e+04 
          -2.670e+04 -7.012e+01 4.376e+04 
          -5.188e+03 -3.631e+01 3.858e+03 
          -9.346e+01 5.183e+03 -1.826e+04 
          -1.189e+02 -8.718e+03 -1.184e+05 
          -7.052e+01 -1.687e+03 1.226e+04 
          -2.504e+04 -1.268e+02 8.623e+04 
          -1.162e+04 -2.198e+01 -2.869e+04 
          -1.162e+04 -5.221e+01 3.933e+04 
          3.582e+00 2.060e+03 -6.685e-05 
          -2.839e+02 2.216e+03 4.695e-04 
          3.778e+03 -4.389e+01 3.524e-04 
          2.820e+03 1.653e+01 2.756e-04 
          5.431e+01 1.890e+03 -4.091e-06 
          -9.807e+01 -7.377e+03 -1.233e-05 
          -1.962e+02 1.910e+03 3.586e-05 
          -7.518e+03 -1.967e+02 -6.823e-05 
          1.041e+03 -7.480e+00 -9.533e-05 
          1.052e+03 5.876e+00 1.532e-05 
          -6.960e+01 4.203e+02 -6.517e-05 
          -1.081e+02 4.908e+02 4.611e-04 
          1.873e+03 -4.467e+01 3.539e-04 
          -3.730e+02 5.427e+00 2.703e-04 
          -2.003e+01 2.668e+02 -3.728e-06 
          -1.264e+02 -1.163e+03 -3.656e-05 
          -3.668e+02 3.708e+02 4.740e-05 
          -3.908e+02 1.662e+02 -1.058e-04 
          3.211e+02 -4.179e+01 -1.009e-04 
          3.039e+02 -1.399e+01 2.142e-05 
          -5.985e+01 7.776e+00 -7.696e-05 
          -6.803e+01 -1.309e+02 5.480e-04 
          8.234e+02 -5.537e+01 3.911e-04 
          3.272e+01 -3.508e+01 2.786e-04 
          -6.675e+00 -1.529e+02 -4.559e-06 
          -1.114e+02 3.032e+02 -6.598e-05 
          -4.987e+02 2.072e+02 6.600e-05 
          1.478e+03 1.868e+02 -1.522e-04 
          1.952e+02 -3.268e+01 -1.184e-04 
          1.526e+02 1.581e+01 2.877e-05 
          -1.058e+02 -3.165e+02 -9.336e-05 
          -5.173e+00 -2.962e+02 6.600e-04 
          5.643e+02 -6.132e+01 4.286e-04 
          6.784e+01 -6.458e+01 2.868e-04 
          -4.700e+01 -4.820e+02 -5.683e-06 
          -9.621e+01 1.100e+03 -9.570e-05 
          -6.077e+02 1.009e+02 9.022e-05 
          2.719e+03 2.719e+02 -1.954e-04 
          2.946e+02 -1.427e+01 -1.331e-04 
          2.234e+02 6.717e+01 3.652e-05 
          -1.732e+02 -5.691e+02 -1.159e-04 
          3.404e+01 -3.057e+02 7.946e-04 
          6.126e+02 -6.926e+01 4.659e-04 
          1.268e+02 -8.880e+01 2.976e-04 
          -1.053e+02 -7.351e+02 -7.470e-06 
          -7.499e+01 1.611e+03 -1.204e-04 
          -6.770e+02 2.229e+01 1.183e-04 
          3.632e+03 3.282e+02 -2.285e-04 
          4.736e+02 2.716e+01 -1.459e-04 
          3.793e+02 1.589e+02 4.550e-05 
          -2.750e+02 -7.798e+02 -1.448e-04 
          5.345e+01 -2.419e+02 9.382e-04 
          8.580e+02 -7.742e+01 5.018e-04 
          1.939e+02 -1.048e+02 3.105e-04 
          -1.940e+02 -9.427e+02 -1.010e-05 
          -5.355e+01 1.983e+03 -1.363e-04 
          -7.087e+02 -3.430e+01 1.481e-04 
          4.376e+03 3.741e+02 -2.464e-04 
          6.938e+02 9.012e+01 -1.563e-04 
          5.835e+02 2.920e+02 5.636e-05 
          -4.060e+02 -9.517e+02 -1.797e-04 
          5.913e+01 -1.509e+02 1.078e-03 
          1.229e+03 -8.440e+01 5.352e-04 
          2.554e+02 -1.150e+02 3.258e-04 
          -3.089e+02 -1.109e+03 -1.371e-05 
          -2.990e+01 2.264e+03 -1.413e-04 
          -7.075e+02 -7.341e+01 1.777e-04 
          5.004e+03 4.057e+02 -2.472e-04 
          9.308e+02 1.743e+02 -1.641e-04 
          8.120e+02 4.678e+02 6.961e-05 
          -5.774e+02 -1.088e+03 -2.205e-04 
          2.426e+01 -3.390e+01 1.204e-03 
          1.771e+03 -9.377e+01 5.656e-04 
          3.436e+02 -1.128e+02 3.443e-04 
          -4.536e+02 -1.238e+03 -1.841e-05 
          -2.029e+01 2.437e+03 -1.350e-04 
          -6.808e+02 -8.395e+01 2.054e-04 
          5.550e+03 4.283e+02 -2.306e-04 
          1.181e+03 2.781e+02 -1.695e-04 
          1.060e+03 6.796e+02 8.519e-05 
          -7.317e+02 -1.057e+03 -2.664e-04 
          9.722e+01 -1.249e+01 1.304e-03 
          2.289e+03 -8.135e+01 5.907e-04 
          3.140e+02 -1.344e+02 3.633e-04 
          -6.023e+02 -1.202e+03 -2.357e-05 
          4.218e+01 2.368e+03 -1.195e-04 
          -6.380e+02 -6.505e+01 2.307e-04 
          5.840e+03 4.300e+02 -1.976e-04 
          1.372e+03 3.968e+02 -1.711e-04 
          1.253e+03 9.366e+02 1.043e-04 
          -1.095e+03 -1.023e+03 -3.167e-04 
          -3.521e+02 1.204e+02 1.410e-03 
          4.132e+03 -1.631e+02 6.160e-04 
          6.721e+02 -2.132e+01 3.949e-04 
          -8.458e+02 -1.176e+03 -3.227e-05 
          -1.399e+02 1.651e+03 -9.733e-05 
          -6.051e+02 4.557e+02 2.542e-04 
          6.633e+03 4.846e+02 -1.546e-04 
          1.599e+03 5.296e+02 -1.737e-04 
          1.492e+03 1.170e+03 1.191e-04 
          -9.328e+02 -2.494e+03 -3.957e-05 
          1.138e+03 2.955e+03 1.094e-03 
          1.140e+03 1.471e+02 2.201e-04 
          9.108e+02 -2.191e+02 -7.783e-06 
          -9.089e+02 -2.295e+03 -1.623e-05 
          4.308e+02 3.243e+03 -1.380e-04 
          -3.873e+02 -1.409e+03 2.087e-04 
          1.132e+03 2.704e+02 -6.981e-05 
          3.664e+03 7.071e+02 3.403e-05 
          3.489e+03 1.582e+03 2.206e-05 
        </DataArray>
        <DataArray type="Float32" Name="NodeMass" NumberOfComponents="3" format="ascii">
          0.000e+00 0.000e+00 0.000e+00 
          0.000e+00 0.000e+00 0.000e+00 
          0.000e+00 0.000e+00 0.000e+00 
          0.000e+00 0.000e+00 0.000e+00 
          0.000e+00 0.000e+00 0.000e+00 
          0.000e+00 0.000e+00 0.000e+00 
          0.000e+00 0.000e+00 0.000e+00 
          0.000e+00 0.000e+00 0.000e+00 
          0.000e+00 0.000e+00 0.000e+00 
          0.000e+00 0.000e+00 0.000e+00 
          3.472e+01 3.472e+01 1.000e-08 
          2.537e+01 2.537e+01 1.000e-08 
          2.995e+01 2.995e+01 1.000e-08 
          1.654e+01 1.654e+01 1.000e-08 
          3.316e+01 3.316e+01 1.000e-08 
          2.596e+01 2.596e+01 1.000e-08 
          1.878e+01 1.878e+01 1.000e-08 
          2.806e+01 2.806e+01 1.000e-08 
          3.102e+01 3.102e+01 1.000e-08 
          3.817e+01 3.817e+01 1.000e-08 
          2.626e+01 2.626e+01 1.000e-08 
          1.786e+01 1.786e+01 1.000e-08 
          2.196e+01 2.196e+01 1.000e-08 
          1.188e+01 1.188e+01 1.000e-08 
          2.481e+01 2.481e+01 1.000e-08 
          1.835e+01 1.835e+01 1.000e-08 
          1.375e+01 1.375e+01 1.000e-08 
          2.056e+01 2.056e+01 1.000e-08 
          2.285e+01 2.285e+01 1.000e-08 
          2.952e+01 2.952e+01 1.000e-08 
          2.626e+01 2.626e+01 1.000e-08 
          1.786e+01 1.786e+01 1.000e-08 
          2.196e+01 2.196e+01 1.000e-08 
          1.188e+01 1.188e+01 1.000e-08 
          2.481e+01 2.481e+01 1.000e-08 
          1.835e+01 1.835e+01 1.000e-08 
          1.375e+01 1.375e+01 1.000e-08 
          2.056e+01 2.056e+01 1.000e-08 
          2.285e+01 2.285e+01 1.000e-08 
          2.952e+01 2.952e+01 1.000e-08 
          2.626e+01 2.626e+01 1.000e-08 
          1.786e+01 1.786e+01 1.000e-08 
          2.196e+01 2.196e+01 1.000e-08 
          1.188e+01 1.188e+01 1.000e-08 
          2.481e+01 2.481e+01 1.000e-08 
          1.835e+01 1.835e+01 1.000e-08 
          1.375e+01 1.375e+01 1.000e-08 
          2.056e+01 2.056e+01 1.000e-08 
          2.285e+01 2.285e+01 1.000e-08 
          2.952e+01 2.952e+01 1.000e-08 
          2.626e+01 2.626e+01 1.000e-08 
          1.786e+01 1.786e+01 1.000e-08 
          2.196e+01 2.196e+01 1.000e-08 
          1.188e+01 1.188e+01 1.000e-08 
          2.481e+01 2.481e+01 1.000e-08 
          1.835e+01 1.835e+01 1.000e-08 
          1.375e+01 1.375e+01 1.000e-08 
          2.056e+01 2.056e+01 1.000e-08 
          2.285e+01 2.285e+01 1.000e-08 
          2.952e+01 2.952e+01 1.000e-08 
          2.626e+01 2.626e+01 1.000e-08 
          1.786e+01 1.786e+01 1.000e-08 
          2.196e+01 2.196e+01 1.000e-08 
          1.188e+01 1.188e+01 1.000e-08 
          2.481e+01 2.481e+01 1.000e-08 
          1.835e+01 1.835e+01 1.000e-08 
          1.375e+01 1.375e+01 1.000e-08 
          2.056e+01 2.056e+01 1.000e-08 
          2.285e+01 2.285e+01 1.000e-08 
          2.952e+01 2.952e+01 1.000e-08 
          2.626e+01 2.626e+01 1.000e-08 
          1.786e+01 1.786e+01 1.000e-08 
          2.196e+01 2.196e+01 1.000e-08 
          1.188e+01 1.188e+01 1.000e-08 
          2.481e+01 2.481e+01 1.000e-08 
          1.835e+01 1.835e+01 1.000e-08 
          1.375e+01 1.375e+01 1.000e-08 
          2.056e+01 2.056e+01 1.000e-08 
          2.285e+01 2.285e+01 1.000e-08 
          2.952e+01 2.952e+01 1.000e-08 
          2.626e+01 2.626e+01 1.000e-08 
          1.786e+01 1.786e+01 1.000e-08 
          2.196e+01 2.196e+01 1.000e-08 
          1.188e+01 1.188e+01 1.000e-08 
          2.481e+01 2.481e+01 1.000e-08 
          1.835e+01 1.835e+01 1.000e-08 
          1.375e+01 1.375e+01 1.000e-08 
          2.056e+01 2.056e+01 1.000e-08 
          2.285e+01 2.285e+01 1.000e-08 
          2.952e+01 2.952e+01 1.000e-08 
          2.626e+01 2.626e+01 1.000e-08 
          1.786e+01 1.786e+01 1.000e-08 
          2.196e+01 2.196e+01 1.000e-08 
          1.188e+01 1.188e+01 1.000e-08 
          2.481e+01 2.481e+01 1.000e-08 
          1.835e+01 1.835e+01 1.000e-08 
          1.375e+01 1.375e+01 1.000e-08 
          2.056e+01 2.056e+01 1.000e-08 
          2.285e+01 2.285e+01 1.000e-08 
          2.952e+01 2.952e+01 1.000e-08 
          2.626e+01 2.626e+01 1.000e-08 
          1.786e+01 1.786e+01 1.000e-08 
          2.196e+01 2.196e+01 1.000e-08 
          1.188e+01 1.188e+01 1.000e-08 
          2.481e+01 2.481e+01 1.000e-08 
          1.835e+01 1.835e+01 1.000e-08 
          1.375e+01 1.375e+01 1.000e-08 
          2.056e+01 2.056e+01 1.000e-08 
          2.285e+01 2.285e+01 1.000e-08 
          2.952e+01 2.952e+01 1.000e-08 
          1.923e+01 1.923e+01 1.000e-08 
          1.672e+01 1.672e+01 1.000e-08 
          1.804e+01 1.804e+01 1.000e-08 
          1.046e+01 1.046e+01 1.000e-08 
          1.890e+01 1.890e+01 1.000e-08 
          1.697e+01 1.697e+01 1.000e-08 
          1.135e+01 1.135e+01 1.000e-08 
          1.694e+01 1.694e+01 1.000e-08 
          1.840e+01 1.840e+01 1.000e-08 
          1.984e+01 1.984e+01 1.000e-08 
        </DataArray>
        <DataArray type="Float32" Name="EigenVector1" NumberOfComponents="3" format="ascii">
          0.000e+00 0.000e+00 0.000e+00 
          0.000e+00 0.000e+00 0.000e+00 
          0.000e+00 0.000e+00 0.000e+00 
          0.000e+00 0.000e+00 0.000e+00 
          0.000e+00 0.000e+00 0.000e+00 
          0.000e+00 0.000e+00 0.000e+00 
          0.000e+00 0.000e+00 0.000e+00 
          0.000e+00 0.000e+00 0.000e+00 
          0.000e+00 0.000e+00 0.000e+00 
          0.000e+00 0.000e+00 0.000e+00 
          9.180e-04 -1.731e-04 -3.283e-05 
          9.180e-04 7.319e-04 1.646e-04 
          8.242e-04 9.271e-04 -1.148e-04 
          6.823e-04 5.367e-04 9.607e-05 
          5.228e-04 -1.731e-04 3.686e-05 
          5.228e-04 3.820e-04 3.166e-04 
          5.228e-04 5.367e-04 -3.773e-05 
          3.634e-04 5.367e-04 -3.079e-04 
          -2.510e-04 5.367e-04 -5.420e-05 
          -2.510e-04 9.271e-04 5.002e-05 
          2.213e-03 -4.444e-04 -5.428e-05 
          2.213e-03 1.758e-03 2.717e-04 
          1.985e-03 2.233e-03 -1.896e-04 
          1.640e-03 1.283e-03 1.585e-04 
          1.251e-03 -4.444e-04 6.094e-05 
          1.251e-03 9.067e-04 5.039e-04 
          1.251e-03 1.283e-03 -6.220e-05 
          8.634e-04 1.283e-03 -4.904e-04 
          -6.321e-04 1.283e-03 -8.946e-05 
          -6.321e-04 2.233e-03 8.256e-05 
          3.890e-03 -8.030e-04 -7.395e-05 
          3.890e-03 3.083e-03 3.698e-04 
          3.487e-03 3.921e-03 -2.584e-04 
          2.878e-03 2.245e-03 2.155e-04 
          2.193e-03 -8.030e-04 8.304e-05 
          2.193e-03 1.581e-03 6.574e-04 
          2.193e-03 2.245e-03 -8.455e-05 
          1.508e-03 2.245e-03 -6.406e-04 
          -1.130e-03 2.245e-03 -1.217e-04 
          -1.130e-03 3.921e-03 1.123e-04 
          5.840e-03 -1.220e-03 -9.144e-05 
          5.840e-03 4.621e-03 4.571e-04 
          5.234e-03 5.880e-03 -3.199e-04 
          4.319e-03 3.361e-03 2.663e-04 
          3.289e-03 -1.220e-03 1.027e-04 
          3.289e-03 2.363e-03 7.775e-04 
          3.289e-03 3.361e-03 -1.044e-04 
          2.260e-03 3.361e-03 -7.591e-04 
          -1.705e-03 3.361e-03 -1.502e-04 
          -1.705e-03 5.880e-03 1.386e-04 
          7.971e-03 -1.670e-03 -1.065e-04 
          7.971e-03 6.297e-03 5.326e-04 
          7.145e-03 8.016e-03 -3.733e-04 
          5.896e-03 4.578e-03 3.101e-04 
          4.492e-03 -1.670e-03 1.197e-04 
          4.492e-03 3.217e-03 8.664e-04 
          4.492e-03 4.578e-03 -1.214e-04 
          3.088e-03 4.578e-03 -8.478e-04 
          -2.321e-03 4.578e-03 -1.747e-04 
          -2.321e-03 8.016e-03 1.611e-04 
          1.020e-02 -2.132e-03 -1.191e-04 
          1.020e-02 8.048e-03 5.959e-04 
          9.146e-03 1.024e-02 -4.183e-04 
          7.550e-03 5.852e-03 3.468e-04 
          5.756e-03 -2.132e-03 1.339e-04 
          5.756e-03 4.112e-03 9.274e-04 
          5.756e-03 5.852e-03 -1.356e-04 
          3.962e-03 5.852e-03 -9.098e-04 
          -2.950e-03 5.852e-03 -1.951e-04 
          -2.950e-03 1.024e-02 1.798e-04 
          1.247e-02 -2.589e-03 -1.292e-04 
          1.247e-02 9.821e-03 6.471e-04 
          1.118e-02 1.250e-02 -4.549e-04 
          9.233e-03 7.144e-03 3.764e-04 
          7.045e-03 -2.589e-03 1.454e-04 
          7.045e-03 5.023e-03 9.648e-04 
          7.045e-03 7.144e-03 -1.470e-04 
          4.859e-03 7.144e-03 -9.491e-04 
          -3.567e-03 7.144e-03 -2.113e-04 
          -3.567e-03 1.250e-02 1.947e-04 
          1.471e-02 -3.029e-03 -1.370e-04 
          1.471e-02 1.157e-02 6.867e-04 
          1.319e-02 1.472e-02 -4.833e-04 
          1.090e-02 8.423e-03 3.991e-04 
          8.329e-03 -3.029e-03 1.542e-04 
          8.329e-03 5.927e-03 9.836e-04 
          8.329e-03 8.423e-03 -1.558e-04 
          5.757e-03 8.423e-03 -9.702e-04 
          -4.157e-03 8.423e-03 -2.238e-04 
          -4.157e-03 1.472e-02 2.061e-04 
          1.688e-02 -3.445e-03 -1.426e-04 
          1.688e-02 1.327e-02 7.152e-04 
          1.515e-02 1.688e-02 -5.039e-04 
          1.253e-02 9.665e-03 4.154e-04 
          9.584e-03 -3.445e-03 1.605e-04 
          9.584e-03 6.808e-03 9.896e-04 
          9.584e-03 9.665e-03 -1.620e-04 
          6.639e-03 9.665e-03 -9.784e-04 
          -4.710e-03 9.665e-03 -2.327e-04 
          -4.710e-03 1.688e-02 2.142e-04 
          1.898e-02 -3.836e-03 -1.462e-04 
          1.898e-02 1.490e-02 7.335e-04 
          1.704e-02 1.894e-02 -5.173e-04 
          1.410e-02 1.086e-02 4.258e-04 
          1.080e-02 -3.836e-03 1.646e-04 
          1.080e-02 7.658e-03 9.888e-04 
          1.080e-02 1.086e-02 -1.659e-04 
          7.497e-03 1.086e-02 -9.793e-04 
          -5.225e-03 1.086e-02 -2.383e-04 
          -5.225e-03 1.894e-02 2.194e-04 
          2.100e-02 -4.207e-03 -1.480e-04 
          2.100e-02 1.647e-02 7.424e-04 
          1.885e-02 2.093e-02 -5.238e-04 
          1.561e-02 1.201e-02 4.306e-04 
          1.197e-02 -4.207e-03 1.666e-04 
          1.197e-02 8.474e-03 9.868e-04 
          1.197e-02 1.201e-02 -1.677e-04 
          8.327e-03 1.201e-02 -9.785e-04 
          -5.709e-03 1.201e-02 -2.411e-04 
          -5.709e-03 2.093e-02 2.219e-04 
        </DataArray>
        <DataArray type="Float32" Name="EigenVector2" NumberOfComponents="3" format="ascii">
          0.000e+00 0.000e+00 0.000e+00 
          0.000e+00 0.000e+00 0.000e+00 
          0.000e+00 0.000e+00 0.000e+00 
          0.000e+00 0.000e+00 0.000e+00 
          0.000e+00 0.000e+00 0.000e+00 
          0.000e+00 0.000e+00 0.000e+00 
          0.000e+00 0.000e+00 0.000e+00 
          0.000e+00 0.000e+00 0.000e+00 
          0.000e+00 0.000e+00 0.000e+00 
          0.000e+00 0.000e+00 0.000e+00 
          -6.215e-04 6.008e-04 1.226e-04 
          -6.215e-04 6.007e-04 1.656e-06 
          -6.214e-04 6.007e-04 2.822e-05 
          -6.214e-04 6.008e-04 1.389e-04 
          -6.214e-04 6.008e-04 -1.268e-04 
          -6.214e-04 6.008e-04 -8.035e-05 
          -6.214e-04 6.008e-04 6.195e-06 
          -6.214e-04 6.008e-04 -9.246e-05 
          -6.213e-04 6.008e-04 -1.341e-04 
          -6.213e-04 6.007e-04 1.298e-04 
          -1.541e-03 1.493e-03 2.028e-04 
          -1.541e-03 1.487e-03 2.606e-06 
          -1.541e-03 1.486e-03 4.680e-05 
          -1.540e-03 1.489e-03 2.290e-04 
          -1.539e-03 1.493e-03 -2.098e-04 
          -1.539e-03 1.490e-03 -1.331e-04 
          -1.539e-03 1.489e-03 1.049e-05 
          -1.538e-03 1.489e-03 -1.501e-04 
          -1.534e-03 1.489e-03 -2.218e-04 
          -1.534e-03 1.486e-03 2.147e-04 
          -2.752e-03 2.667e-03 2.769e-04 
          -2.752e-03 2.649e-03 3.297e-06 
          -2.750e-03 2.645e-03 6.410e-05 
          -2.747e-03 2.653e-03 3.111e-04 
          -2.744e-03 2.667e-03 -2.865e-04 
          -2.744e-03 2.656e-03 -1.822e-04 
          -2.744e-03 2.653e-03 1.484e-05 
          -2.741e-03 2.653e-03 -1.996e-04 
          -2.728e-03 2.653e-03 -3.026e-04 
          -2.728e-03 2.645e-03 2.929e-04 
          -4.172e-03 4.041e-03 3.433e-04 
          -4.172e-03 4.002e-03 3.717e-06 
          -4.168e-03 3.994e-03 7.980e-05 
          -4.162e-03 4.011e-03 3.838e-04 
          -4.155e-03 4.041e-03 -3.552e-04 
          -4.155e-03 4.017e-03 -2.267e-04 
          -4.155e-03 4.011e-03 1.915e-05 
          -4.148e-03 4.011e-03 -2.405e-04 
          -4.122e-03 4.011e-03 -3.751e-04 
          -4.122e-03 3.994e-03 3.629e-04 
          -5.730e-03 5.545e-03 4.013e-04 
          -5.730e-03 5.476e-03 3.883e-06 
          -5.722e-03 5.461e-03 9.368e-05 