<?xml version="1.0"?>
<VTKFile type="UnstructuredGrid" version="1.0" byte_order="LittleEndian" compressor="vtkZLibDataCompressor">
  <UnstructuredGrid>
    <Piece NumberOfPoints="474" NumberOfCells="352">
      <Points>
        <DataArray type="Float32" Name="Points" NumberOfComponents="3" format="ascii">
          6.505e+00 0.000e+00 0.000e+00 
          1.301e+01 0.000e+00 0.000e+00 
          2.941e+01 0.000e+00 0.000e+00 
          6.505e+00 9.150e+00 0.000e+00 
          2.121e+01 9.150e+00 0.000e+00 
          2.941e+01 9.150e+00 0.000e+00 
          6.505e+00 1.662e+01 0.000e+00 
          2.121e+01 1.662e+01 0.000e+00 
          2.941e+01 1.662e+01 0.000e+00 
          1.301e+01 2.382e+01 0.000e+00 
          2.121e+01 2.382e+01 0.000e+00 
          2.941e+01 2.382e+01 0.000e+00 
          0.000e+00 0.000e+00 4.500e+00 
          6.505e+00 0.000e+00 4.500e+00 
          1.301e+01 0.000e+00 4.500e+00 
          2.121e+01 0.000e+00 4.500e+00 
          2.941e+01 0.000e+00 4.500e+00 
          0.000e+00 3.625e+00 4.500e+00 
          2.121e+01 3.625e+00 4.500e+00 
          2.177e+01 5.825e+00 4.500e+00 
          2.579e+01 5.825e+00 4.500e+00 
          2.941e+01 5.825e+00 4.500e+00 
          2.121e+01 7.305e+00 4.500e+00 
          0.000e+00 7.550e+00 4.500e+00 
          0.000e+00 9.150e+00 4.500e+00 
          6.505e+00 9.150e+00 4.500e+00 
          1.301e+01 9.150e+00 4.500e+00 
          1.494e+01 9.150e+00 4.500e+00 
          1.664e+01 9.150e+00 4.500e+00 
          1.834e+01 9.150e+00 4.500e+00 
          2.121e+01 9.150e+00 4.500e+00 
          2.941e+01 9.150e+00 4.500e+00 
          1.664e+01 1.045e+01 4.500e+00 
          0.000e+00 1.289e+01 4.500e+00 
          1.301e+01 1.289e+01 4.500e+00 
          1.664e+01 1.289e+01 4.500e+00 
          1.664e+01 1.535e+01 4.500e+00 
          1.301e+01 1.645e+01 4.500e+00 
          0.000e+00 1.662e+01 4.500e+00 
          6.505e+00 1.662e+01 4.500e+00 
          1.298e+01 1.662e+01 4.500e+00 
          1.664e+01 1.662e+01 4.500e+00 
          2.029e+01 1.662e+01 4.500e+00 
          2.121e+01 1.662e+01 4.500e+00 
          2.941e+01 1.662e+01 4.500e+00 
          1.301e+01 2.382e+01 4.500e+00 
          2.121e+01 2.382e+01 4.500e+00 
          2.941e+01 2.382e+01 4.500e+00 
          1.301e+01 3.102e+01 4.500e+00 
          1.664e+01 3.102e+01 4.500e+00 
          2.041e+01 3.102e+01 4.500e+00 
          2.201e+01 3.102e+01 4.500e+00 
          2.579e+01 3.102e+01 4.500e+00 
          2.941e+01 3.102e+01 4.500e+00 
          0.000e+00 0.000e+00 7.600e+00 
          6.505e+00 0.000e+00 7.600e+00 
          1.301e+01 0.000e+00 7.600e+00 
          2.121e+01 0.000e+00 7.600e+00 
          2.941e+01 0.000e+00 7.600e+00 
          0.000e+00 3.625e+00 7.600e+00 
          2.121e+01 3.625e+00 7.600e+00 
          2.177e+01 5.825e+00 7.600e+00 
          2.579e+01 5.825e+00 7.600e+00 
          2.941e+01 5.825e+00 7.600e+00 
          2.121e+01 7.305e+00 7.600e+00 
          0.000e+00 7.550e+00 7.600e+00 
          0.000e+00 9.150e+00 7.600e+00 
          6.505e+00 9.150e+00 7.600e+00 
          1.301e+01 9.150e+00 7.600e+00 
          1.494e+01 9.150e+00 7.600e+00 
          1.664e+01 9.150e+00 7.600e+00 
          1.834e+01 9.150e+00 7.600e+00 
          2.121e+01 9.150e+00 7.600e+00 
          2.941e+01 9.150e+00 7.600e+00 
          1.664e+01 1.045e+01 7.600e+00 
          0.000e+00 1.289e+01 7.600e+00 
          1.301e+01 1.289e+01 7.600e+00 
          1.664e+01 1.289e+01 7.600e+00 
          1.664e+01 1.535e+01 7.600e+00 
          1.301e+01 1.645e+01 7.600e+00 
          0.000e+00 1.662e+01 7.600e+00 
          6.505e+00 1.662e+01 7.600e+00 
          1.298e+01 1.662e+01 7.600e+00 
          1.664e+01 1.662e+01 7.600e+00 
          2.029e+01 1.662e+01 7.600e+00 
          2.121e+01 1.662e+01 7.600e+00 
          2.941e+01 1.662e+01 7.600e+00 
          1.301e+01 2.382e+01 7.600e+00 
          2.121e+01 2.382e+01 7.600e+00 
          2.941e+01 2.382e+01 7.600e+00 
          1.301e+01 3.102e+01 7.600e+00 
          1.664e+01 3.102e+01 7.600e+00 
          2.041e+01 3.102e+01 7.600e+00 
          2.201e+01 3.102e+01 7.600e+00 
          2.579e+01 3.102e+01 7.600e+00 
          2.941e+01 3.102e+01 7.600e+00 
          0.000e+00 0.000e+00 1.070e+01 
          6.505e+00 0.000e+00 1.070e+01 
          1.301e+01 0.000e+00 1.070e+01 
          2.121e+01 0.000e+00 1.070e+01 
          2.941e+01 0.000e+00 1.070e+01 
          0.000e+00 3.625e+00 1.070e+01 
          2.121e+01 3.625e+00 1.070e+01 
          2.177e+01 5.825e+00 1.070e+01 
          2.579e+01 5.825e+00 1.070e+01 
          2.941e+01 5.825e+00 1.070e+01 
          2.121e+01 7.305e+00 1.070e+01 
          0.000e+00 7.550e+00 1.070e+01 
          0.000e+00 9.150e+00 1.070e+01 
          6.505e+00 9.150e+00 1.070e+01 
          1.301e+01 9.150e+00 1.070e+01 
          1.494e+01 9.150e+00 1.070e+01 
          1.664e+01 9.150e+00 1.070e+01 
          1.834e+01 9.150e+00 1.070e+01 
          2.121e+01 9.150e+00 1.070e+01 
          2.941e+01 9.150e+00 1.070e+01 
          1.664e+01 1.045e+01 1.070e+01 
          0.000e+00 1.289e+01 1.070e+01 
          1.301e+01 1.289e+01 1.070e+01 
          1.664e+01 1.289e+01 1.070e+01 
          1.664e+01 1.535e+01 1.070e+01 
          1.301e+01 1.645e+01 1.070e+01 
          0.000e+00 1.662e+01 1.070e+01 
          6.505e+00 1.662e+01 1.070e+01 
          1.298e+01 1.662e+01 1.070e+01 
          1.664e+01 1.662e+01 1.070e+01 
          2.029e+01 1.662e+01 1.070e+01 
          2.121e+01 1.662e+01 1.070e+01 
          2.941e+01 1.662e+01 1.070e+01 
          1.301e+01 2.382e+01 1.070e+01 
          2.121e+01 2.382e+01 1.070e+01 
          2.941e+01 2.382e+01 1.070e+01 
          1.301e+01 3.102e+01 1.070e+01 
          1.664e+01 3.102e+01 1.070e+01 
          2.041e+01 3.102e+01 1.070e+01 
          2.201e+01 3.102e+01 1.070e+01 
          2.579e+01 3.102e+01 1.070e+01 
          2.941e+01 3.102e+01 1.070e+01 
          0.000e+00 0.000e+00 1.380e+01 
          6.505e+00 0.000e+00 1.380e+01 
          1.301e+01 0.000e+00 1.380e+01 
          2.121e+01 0.000e+00 1.380e+01 
          2.941e+01 0.000e+00 1.380e+01 
          0.000e+00 3.625e+00 1.380e+01 
          2.121e+01 3.625e+00 1.380e+01 
          2.177e+01 5.825e+00 1.380e+01 
          2.579e+01 5.825e+00 1.380e+01 
          2.941e+01 5.825e+00 1.380e+01 
          2.121e+01 7.305e+00 1.380e+01 
          0.000e+00 7.550e+00 1.380e+01 
          0.000e+00 9.150e+00 1.380e+01 
          6.505e+00 9.150e+00 1.380e+01 
          1.301e+01 9.150e+00 1.380e+01 
          1.494e+01 9.150e+00 1.380e+01 
          1.664e+01 9.150e+00 1.380e+01 
          1.834e+01 9.150e+00 1.380e+01 
          2.121e+01 9.150e+00 1.380e+01 
          2.941e+01 9.150e+00 1.380e+01 
          1.664e+01 1.045e+01 1.380e+01 
          0.000e+00 1.289e+01 1.380e+01 
          1.301e+01 1.289e+01 1.380e+01 
          1.664e+01 1.289e+01 1.380e+01 
          1.664e+01 1.535e+01 1.380e+01 
          1.301e+01 1.645e+01 1.380e+01 
          0.000e+00 1.662e+01 1.380e+01 
          6.505e+00 1.662e+01 1.380e+01 
          1.298e+01 1.662e+01 1.380e+01 
          1.664e+01 1.662e+01 1.380e+01 
          2.029e+01 1.662e+01 1.380e+01 
          2.121e+01 1.662e+01 1.380e+01 
          2.941e+01 1.662e+01 1.380e+01 
          1.301e+01 2.382e+01 1.380e+01 
          2.121e+01 2.382e+01 1.380e+01 
          2.941e+01 2.382e+01 1.380e+01 
          1.301e+01 3.102e+01 1.380e+01 
          1.664e+01 3.102e+01 1.380e+01 
          2.041e+01 3.102e+01 1.380e+01 
          2.201e+01 3.102e+01 1.380e+01 
          2.579e+01 3.102e+01 1.380e+01 
          2.941e+01 3.102e+01 1.380e+01 
          0.000e+00 0.000e+00 1.690e+01 
          6.505e+00 0.000e+00 1.690e+01 
          1.301e+01 0.000e+00 1.690e+01 
          2.121e+01 0.000e+00 1.690e+01 
          2.941e+01 0.000e+00 1.690e+01 
          0.000e+00 3.625e+00 1.690e+01 
          2.121e+01 3.625e+00 1.690e+01 
          2.177e+01 5.825e+00 1.690e+01 
          2.579e+01 5.825e+00 1.690e+01 
          2.941e+01 5.825e+00 1.690e+01 
          2.121e+01 7.305e+00 1.690e+01 
          0.000e+00 7.550e+00 1.690e+01 
          0.000e+00 9.150e+00 1.690e+01 
          6.505e+00 9.150e+00 1.690e+01 
          1.301e+01 9.150e+00 1.690e+01 
          1.494e+01 9.150e+00 1.690e+01 
          1.664e+01 9.150e+00 1.690e+01 
          1.834e+01 9.150e+00 1.690e+01 
          2.121e+01 9.150e+00 1.690e+01 
          2.941e+01 9.150e+00 1.690e+01 
          1.664e+01 1.045e+01 1.690e+01 
          0.000e+00 1.289e+01 1.690e+01 
          1.301e+01 1.289e+01 1.690e+01 
          1.664e+01 1.289e+01 1.690e+01 
          1.664e+01 1.535e+01 1.690e+01 
          1.301e+01 1.645e+01 1.690e+01 
          0.000e+00 1.662e+01 1.690e+01 
          6.505e+00 1.662e+01 1.690e+01 
          1.298e+01 1.662e+01 1.690e+01 
          1.664e+01 1.662e+01 1.690e+01 
          2.029e+01 1.662e+01 1.690e+01 
          2.121e+01 1.662e+01 1.690e+01 
          2.941e+01 1.662e+01 1.690e+01 
          1.301e+01 2.382e+01 1.690e+01 
          2.121e+01 2.382e+01 1.690e+01 
          2.941e+01 2.382e+01 1.690e+01 
          1.301e+01 3.102e+01 1.690e+01 
          1.664e+01 3.102e+01 1.690e+01 
          2.041e+01 3.102e+01 1.690e+01 
          2.201e+01 3.102e+01 1.690e+01 
          2.579e+01 3.102e+01 1.690e+01 
          2.941e+01 3.102e+01 1.690e+01 
          0.000e+00 0.000e+00 2.000e+01 
          6.505e+00 0.000e+00 2.000e+01 
          1.301e+01 0.000e+00 2.000e+01 
          2.121e+01 0.000e+00 2.000e+01 
          2.941e+01 0.000e+00 2.000e+01 
          0.000e+00 3.625e+00 2.000e+01 
          2.121e+01 3.625e+00 2.000e+01 
          2.177e+01 5.825e+00 2.000e+01 
          2.579e+01 5.825e+00 2.000e+01 
          2.941e+01 5.825e+00 2.000e+01 
          2.121e+01 7.305e+00 2.000e+01 
          0.000e+00 7.550e+00 2.000e+01 
          0.000e+00 9.150e+00 2.000e+01 
          6.505e+00 9.150e+00 2.000e+01 
[...]
      <PointData>
        <DataArray type="Int32" Name="NodeTag" format="ascii">
          1001
          1003
          1013
          1071
          1079
          1083
          1141
          1149
          1153
          1154
          1160
          1164
          11000
          11001
          11003
          11009
          11013
          11014
          11023
          11038
          11040
          11041
          11051
          11056
          11070
          11071
          11073
          11074
          11075
          11076
          11079
          11083
          11089
          11098
          11101
          11103
          11117
          11129
          11140
          11141
          11142
          11145
          11147
          11149
          11153
          11154
          11160
          11164
          11165
          11167
          11170
          11173
          11174
          11175
          21000
          21001
          21003
          21009
          21013
          21014
          21023
          21038
          21040
          21041
          21051
          21056
          21070
          21071
          21073
          21074
          21075
          21076
          21079
          21083
          21089
          21098
          21101
          21103
          21117
          21129
          21140
          21141
          21142
          21145
          21147
          21149
          21153
          21154
          21160
          21164
          21165
          21167
          21170
          21173
          21174
          21175
          31000
          31001
          31003
          31009
          31013
          31014
          31023
          31038
          31040
          31041
          31051
          31056
          31070
          31071
          31073
          31074
          31075
          31076
          31079
          31083
          31089
          31098
          31101
          31103
          31117
          31129
          31140
          31141
          31142
          31145
          31147
          31149
          31153
          31154
          31160
          31164
          31165
          31167
          31170
          31173
          31174
          31175
          41000
          41001
          41003
          41009
          41013
          41014
          41023
          41038
          41040
          41041
          41051
          41056
          41070
          41071
          41073
          41074
          41075
          41076
          41079
          41083
          41089
          41098
          41101
          41103
          41117
          41129
          41140
          41141
          41142
          41145
          41147
          41149
          41153
          41154
          41160
          41164
          41165
          41167
          41170
          41173
          41174
          41175
          51000
          51001
          51003
          51009
          51013
          51014
          51023
          51038
          51040
          51041
          51051
          51056
          51070
          51071
          51073
          51074
          51075
          51076
          51079
          51083
          51089
          51098
          51101
          51103
          51117
          51129
          51140
          51141
          51142
          51145
          51147
          51149
          51153
          51154
          51160
          51164
          51165
          51167
          51170
          51173
          51174
          51175
          61000
          61001
          61003
          61009
          61013
          61014
          61023
          61038
          61040
          61041
          61051
          61056
          61070
          61071
          61073
          61074
          61075
          61076
          61079
          61083
          61089
          61098
          61101
          61103
          61117
          61129
          61140
          61141
          61142
          61145
          61147
          61149
          61153
          61154
          61160
          61164
          61165
          61167
          61170
          61173
          61174
          61175
          71000
          71001
          71003
          71009
          71013
          71014
          71023
          71038
          71040
          71041
          71051
          71056
          71070
          71071
          71073
          71074
          71075
          71076
          71079
          71083
          71089
          71098
          71101
          71103
          71117
          71129
          71140
          71141
          71142
          71145
          71147
          71149
          71153
          71154
          71160
          71164
          71165
          71167
          71170
          71173
          71174
          71175
          81000
          81001
          81003
          81009
          81013
          81014
          81023
          81038
          81040
          81041
          81051
          81056
          81070
          81071
          81073
          81074
          81075
          81076
          81079
          81083
          81089
          81098
          81101
          81103
          81117
          81129
          81140
          81141
          81142
          81145
          81147
          81149
          81153
          81154
          81160
          81164
          81165
          81167
          81170
          81173
          81174
          81175
          91000
          91001
          91003
          91009
          91013
          91014
          91023
          91038
          91040
          91041
          91051
          91056
          91070
          91071
          91073
          91074
          91075
          91076
          91079
          91083
          91089
          91098
          91101
          91103
          91117
          91129
          91140
          91141
          91142
          91145
          91147
          91149
          91153
          91154
          91160
          91164
          91165
          91167
          91170
          91173
          91174
          91175
          101000
          101001
          101003
          101009
          101013
          101014
          101023
          101038
          101040
          101041
          101051
          101056
          101070
          101071
          101073
          101074
          101075
          101076
          101079
          101083
          101089
          101098
          101101
          101103
          101117
          101129
          101140
          101141
          101142
          101145
          101147
          101149
          101153
          101154
          101160
          101164
          101165
          101167
          101170
          101173
          101174
          101175
          111000
          111001
          111003
          111009
          111013
          111014
          111023
          111038
          111040
          111041
          111051
          111056
          111070
          111071
          111073
          111074
          111075
          111076
          111079
          111083
          111089
          111098
          111101
          111103
          111117
          111129
          111140
          111141
          111142
          111145
          111147
          111149
          111153
          111154
          111160
          111164
          111165
          111167
          111170
          111173
          111174
          111175
        </DataArray>
        <DataArray type="Float32" Name="Reaction" NumberOfComponents="3" format="ascii">
          -2.736e+01 2.651e+01 3.564e+03 
          -2.935e+01 3.790e+00 2.003e+03 
          -2.641e+01 -2.050e+01 2.805e+03 
          -2.397e+01 4.459e+00 2.889e+03 
          -5.719e+01 8.410e+00 8.329e+03 
          -4.121e+01 -1.605e+01 7.155e+03 
          -2.908e+01 -2.574e+00 -5.485e+01 
          -3.465e+01 2.348e+01 3.721e+04 
          -7.599e+01 -1.676e+01 4.858e+03 
          -4.528e+01 -3.450e+00 9.481e+02 
          -5.684e+01 -7.404e+00 4.539e+03 
          -7.342e+01 -6.236e+00 4.201e+03 
          -2.308e+01 -5.662e+01 -5.918e-05 
          -5.356e+01 -2.269e+02 1.671e-03 
          -4.374e+02 3.087e+01 -3.969e-03 
          -5.910e+02 -4.370e+01 1.398e-03 
          2.890e+01 4.062e+01 3.876e-04 
          9.843e+00 2.828e+03 -1.248e-04 
          -3.589e+02 3.037e+03 8.421e-04 
          -9.393e+02 -3.809e+02 2.235e-04 
          5.179e+03 -6.111e+01 6.422e-04 
          5.827e+02 2.815e+01 3.303e-04 
          1.060e+02 7.547e+02 -1.144e-04 
          -2.046e+02 -1.972e+02 -8.875e-05 
          2.466e+01 8.807e+00 -8.118e-06 
          -1.152e+01 3.798e+02 2.221e-03 
          -5.223e+01 3.105e+01 -4.075e-03 
          -2.676e+02 1.982e+02 1.061e-03 
          3.930e+03 1.630e+01 5.064e-04 
          2.751e+02 2.006e+02 1.135e-04 
          -1.861e+02 -1.391e+02 -1.231e-04 
          1.728e+02 -3.910e+02 1.726e-03 
          -1.762e+02 7.036e+01 -1.171e-05 
          7.340e+01 2.620e+03 -7.749e-06 
          -1.567e+02 -1.029e+04 -1.857e-05 
          -3.347e+02 2.659e+03 6.430e-05 
          -3.484e+02 -6.248e+01 1.745e-05 
          -2.947e+02 -3.963e+02 -5.760e-05 
          -3.456e+01 -1.479e+02 -1.389e-07 
          8.201e+01 -1.325e+03 8.053e-05 
          1.300e+02 -1.043e+03 -1.597e-04 
          -1.054e+04 -2.620e+02 -1.178e-04 
          1.898e+03 -7.867e+01 -3.662e-05 
          -8.474e+02 1.060e+02 6.105e-04 
          1.592e+02 1.268e+02 -2.367e-04 
          -1.309e+03 -2.828e+01 9.086e-04 
          -4.423e+02 -2.043e+01 5.332e-04 
          1.019e+02 6.600e+01 6.941e-04 
          -4.871e+02 2.022e+02 1.139e-05 
          1.453e+03 -9.733e+00 -1.753e-04 
          -8.923e+02 6.841e+01 1.815e-04 
          -1.738e+03 6.779e+01 1.098e-04 
          1.460e+03 4.545e+00 2.948e-05 
          9.070e+01 4.672e+01 -1.429e-05 
          -3.146e+01 -7.365e+01 -7.753e-05 
          -3.345e+01 -3.051e+02 1.573e-03 
          -3.834e+02 -1.153e+01 -3.967e-03 
          -1.137e+03 -7.260e+01 1.005e-03 
          3.283e+00 -1.322e+02 2.739e-04 
          -8.659e+01 5.230e+02 -1.248e-04 
          -6.404e+01 5.745e+02 7.790e-04 
          -2.016e+03 -7.805e+02 6.674e-04 
          2.470e+03 -5.406e+01 6.362e-04 
          1.387e+03 6.051e+01 2.092e-04 
          2.592e+02 1.540e+03 -3.427e-04 
          -3.684e+02 -3.363e+02 -1.939e-04 
          6.325e+01 1.200e+01 1.885e-05 
          3.729e+00 2.748e+02 2.030e-03 
          -6.860e+01 2.469e+01 -4.236e-03 
          -6.086e+02 2.108e+02 1.042e-03 
          -5.077e+02 -2.761e+01 4.991e-04 
          5.700e+02 5.099e+02 9.255e-05 
          -2.707e+02 -2.548e+02 -1.200e-04 
          9.278e+01 -2.624e+02 1.197e-03 
          -2.365e+02 1.496e+02 -4.421e-05 
          -2.836e+01 3.305e+02 -7.395e-06 
          -2.063e+02 -1.589e+03 -5.366e-05 
          -6.179e+02 5.337e+02 8.082e-05 
          -7.337e+02 -1.882e+02 4.203e-05 
          -4.949e+02 -6.308e+02 1.045e-04 
          -8.161e+01 -2.029e+02 -1.995e-05 
          1.208e+02 -2.006e+03 8.442e-05 
          2.067e+02 -1.640e+03 -1.867e-04 
          -5.071e+02 2.632e+02 -1.747e-04 
          3.760e+03 -1.505e+02 -2.105e-04 
          -1.132e+03 1.991e+02 6.274e-04 
          2.731e+02 1.659e+02 -1.629e-04 
          -2.117e+03 -4.137e+01 8.503e-04 
          -7.374e+02 -6.286e+01 6.203e-04 
          2.965e+02 9.159e+01 6.590e-04 
          -8.352e+02 3.826e+02 1.042e-06 
          4.500e+02 -6.642e+01 -1.865e-04 
          -1.663e+03 1.538e+02 6.212e-04 
          -3.537e+03 1.444e+02 4.216e-04 
          3.900e+02 -3.507e+01 4.394e-05 
          2.571e+02 1.271e+02 -1.832e-05 
          -6.186e+01 -1.250e+02 -9.744e-05 
          -3.220e+01 -3.554e+02 1.551e-03 
          -3.214e+02 -5.047e+00 -4.007e-03 
          -1.610e+03 -1.062e+02 9.381e-04 
          -4.273e+00 -2.317e+02 2.358e-04 
          -8.053e+01 -7.167e+01 -1.505e-04 
          6.429e+01 -3.325e+02 8.607e-04 
          -3.031e+03 -1.144e+03 1.196e-03 
          9.523e+02 -5.629e+01 6.904e-04 
          2.223e+03 9.745e+01 1.355e-04 
          4.172e+02 2.214e+03 -6.173e-04 
          -5.341e+02 -4.703e+02 -3.326e-04 
          8.857e+01 1.504e+01 7.478e-05 
          1.344e+01 1.400e+02 1.915e-03 
          -6.805e+01 2.245e+01 -4.492e-03 
          -9.832e+02 2.054e+02 1.058e-03 
          6.871e+01 -8.537e+01 5.178e-04 
          8.623e+02 8.651e+02 7.903e-05 
          -3.178e+02 -3.164e+02 -1.234e-04 
          9.471e+01 -1.509e+02 1.144e-03 
          -2.608e+02 2.283e+02 -9.826e-05 
          -1.540e+01 -2.745e+02 -9.398e-06 
          -1.854e+02 4.593e+02 -9.305e-05 
          -8.432e+02 2.978e+02 1.068e-04 
          -1.129e+03 -3.345e+02 8.284e-05 
          -6.429e+02 -7.937e+02 4.553e-04 
          -1.344e+02 -1.702e+02 -5.879e-05 
          1.518e+02 -2.397e+03 1.231e-04 
          2.653e+02 -2.027e+03 3.316e-04 
          2.153e+03 3.206e+02 -2.441e-04 
          5.025e+03 -2.068e+02 -3.768e-04 
          -1.839e+03 2.320e+02 7.038e-04 
          4.039e+02 1.952e+02 4.280e-05 
          -2.792e+03 -4.094e+01 8.395e-04 
          -1.020e+03 -1.172e+02 7.975e-04 
          5.120e+02 1.334e+02 6.658e-04 
          -1.196e+03 5.719e+02 3.189e-06 
          2.859e+02 -5.385e+01 -2.199e-04 
          -2.256e+03 2.310e+02 1.232e-03 
          -5.244e+03 2.337e+02 9.085e-04 
          1.604e+02 6.690e+00 6.286e-05 
          4.647e+02 2.293e+02 -2.066e-05 
          -1.178e+02 -2.219e+02 -1.165e-04 
          -2.829e+01 -5.227e+02 1.515e-03 
          -2.462e+02 -4.372e+01 -4.137e-03 
          -1.985e+03 -1.458e+02 8.415e-04 
          2.015e+01 -3.747e+02 1.956e-04 
          -1.582e+02 -5.365e+02 -1.853e-04 
          2.113e+02 -5.844e+02 9.651e-04 
          -3.858e+03 -1.430e+03 1.669e-03 
          5.616e+02 -5.628e+01 7.409e-04 
          2.967e+03 1.422e+02 2.948e-05 
          5.627e+02 2.694e+03 -8.718e-04 
          -6.797e+02 -5.624e+02 -4.727e-04 
          8.652e+01 3.662e+00 1.333e-04 
          2.321e+01 -1.549e+01 1.768e-03 
          -5.342e+01 2.256e+01 -4.714e-03 
          -1.323e+03 1.839e+02 1.064e-03 
          1.297e+02 -1.328e+02 5.375e-04 
          1.104e+03 1.200e+03 7.122e-05 
          -3.417e+02 -3.539e+02 -1.284e-04 
          1.022e+02 -4.338e+01 9.409e-04 
          -2.549e+02 2.925e+02 -1.675e-04 
          -8.360e+01 -7.440e+02 -1.197e-05 
          -1.610e+02 1.566e+03 -1.296e-04 
          -1.017e+03 1.417e+02 1.403e-04 
          -1.455e+03 -4.683e+02 1.345e-04 
          -7.276e+02 -8.641e+02 1.029e-03 
          -1.825e+02 -5.446e+01 -1.221e-04 
          1.560e+02 -2.454e+03 1.577e-04 
          2.940e+02 -2.191e+03 1.600e-03 
          3.923e+03 4.664e+02 -3.053e-04 
          5.617e+03 -2.307e+02 -5.292e-04 
          -2.362e+03 2.362e+02 7.360e-04 
          5.929e+02 2.232e+02 3.067e-04 
          -3.387e+03 -3.690e+01 8.051e-04 
          -1.225e+03 -1.673e+02 1.043e-03 
          8.324e+02 1.718e+02 6.666e-04 
          -1.534e+03 7.466e+02 1.401e-05 
          4.394e+02 -2.292e+01 -2.483e-04 
          -2.630e+03 2.911e+02 1.882e-03 
          -6.667e+03 3.322e+02 1.513e-03 
          2.487e+02 8.877e+01 8.477e-05 
          6.997e+02 3.467e+02 -2.188e-05 
          -2.032e+02 -3.737e+02 -1.337e-04 
          -2.559e+01 -7.990e+02 1.488e-03 
          -1.672e+02 -9.810e+01 -4.331e-03 
          -2.237e+03 -1.925e+02 7.424e-04 
          8.144e+01 -5.230e+02 1.535e-04 
          -2.764e+02 -8.934e+02 -2.318e-04 
          3.086e+02 -6.046e+02 1.098e-03 
          -4.431e+03 -1.624e+03 1.995e-03 
          6.184e+02 -6.191e+01 7.880e-04 
          3.562e+03 1.916e+02 -1.002e-04 
          6.782e+02 2.959e+03 -1.064e-03 
          -8.006e+02 -6.102e+02 -5.958e-04 
          4.905e+01 -2.512e+01 1.774e-04 
          3.187e+01 -1.579e+02 1.625e-03 
          -3.160e+01 2.419e+01 -4.926e-03 
          -1.592e+03 1.546e+02 1.070e-03 
          2.223e+02 -1.695e+02 5.627e-04 
          1.277e+03 1.471e+03 7.317e-05 
          -3.437e+02 -3.597e+02 -1.351e-04 
          1.465e+02 3.279e+01 6.546e-04 
          -2.326e+02 3.354e+02 -2.463e-04 
          -1.858e+02 -1.099e+03 -1.576e-05 
          -1.260e+02 2.266e+03 -1.559e-04 
          -1.119e+03 2.249e+01 1.791e-04 
          -1.682e+03 -5.704e+02 1.921e-04 
          -7.524e+02 -8.558e+02 1.810e-03 
          -2.215e+02 1.385e+02 -2.098e-04 
          1.433e+02 -2.200e+03 1.917e-04 
          2.963e+02 -2.135e+03 3.678e-03 
          5.216e+03 5.679e+02 -3.481e-04 
          5.583e+03 -2.253e+02 -6.480e-04 
          -2.728e+03 2.050e+02 7.398e-04 
          8.355e+02 2.456e+02 6.556e-04 
          -3.914e+03 -2.901e+01 7.641e-04 
          -1.329e+03 -2.079e+02 1.336e-03 
          1.251e+03 2.073e+02 6.725e-04 
          -1.855e+03 9.008e+02 3.348e-05 
          7.057e+02 4.802e+01 -2.732e-04 
          -2.808e+03 3.325e+02 2.460e-03 
          -7.726e+03 4.423e+02 2.158e-03 
          4.641e+02 2.420e+02 1.108e-04 
          9.576e+02 4.775e+02 -2.245e-05 
          -3.197e+02 -5.845e+02 -1.476e-04 
          -2.134e+01 -1.201e+03 1.466e-03 
          -9.442e+01 -1.731e+02 -4.572e-03 
          -2.371e+03 -2.473e+02 6.524e-04 
          1.843e+02 -6.835e+02 1.141e-04 
          -4.533e+02 -1.185e+03 -2.898e-04 
          3.566e+02 -5.114e+02 1.246e-03 
          -4.742e+03 -1.726e+03 2.147e-03 
          9.643e+02 -7.127e+01 8.312e-04 
          3.988e+03 2.425e+02 -2.444e-04 
          7.581e+02 3.024e+03 -1.179e-03 
          -8.975e+02 -6.179e+02 -6.920e-04 
          -2.714e+01 -6.669e+01 2.002e-04 
          3.989e+01 -2.740e+02 1.485e-03 
          -8.601e+00 2.668e+01 -5.117e-03 
          -1.773e+03 1.222e+02 1.078e-03 
          3.242e+02 -1.933e+02 5.919e-04 
          1.375e+03 1.659e+03 8.743e-05 
          -3.300e+02 -3.411e+02 -1.431e-04 
          2.252e+02 7.232e+01 2.886e-04 
          -2.021e+02 3.557e+02 -3.296e-04 
          -3.394e+02 -1.383e+03 -2.104e-05 
          -9.024e+01 2.767e+03 -1.676e-04 
          -1.156e+03 -6.583e+01 2.206e-04 
          -1.803e+03 -6.338e+02 2.515e-04 
          -7.255e+02 -7.830e+02 2.792e-03 
          -2.500e+02 4.001e+02 -3.211e-04 
          1.151e+02 -1.658e+03 2.192e-04 
          2.752e+02 -1.871e+03 6.546e-03 
          6.259e+03 6.492e+02 -3.659e-04 
          5.080e+03 -1.964e+02 -7.365e-04 
          -2.890e+03 1.518e+02 7.222e-04 
          1.133e+03 2.634e+02 1.081e-03 
          -4.411e+03 -1.988e+01 7.127e-04 
          -1.319e+03 -2.351e+02 1.650e-03 
          1.777e+03 2.378e+02 6.793e-04 
          -2.164e+03 1.032e+03 6.142e-05 
          1.030e+03 1.566e+02 -2.934e-04 
          -2.826e+03 3.591e+02 2.895e-03 
          -8.397e+03 5.682e+02 2.768e-03 
          7.547e+02 4.684e+02 1.416e-04 
          1.239e+03 6.225e+02 -2.301e-05 
          -4.665e+02 -8.540e+02 -1.572e-04 
          -1.273e+01 -1.725e+03 1.448e-03 
          -3.054e+01 -2.637e+02 -4.839e-03 
          -2.401e+03 -3.099e+02 5.844e-04 
          3.294e+02 -8.549e+02 8.059e-05 
          -6.814e+02 -1.416e+03 -3.590e-04 
          3.648e+02 -3.746e+02 1.394e-03 
          -4.816e+03 -1.747e+03 2.140e-03 
          1.493e+03 -8.163e+01 8.704e-04 
          4.257e+03 2.910e+02 -3.941e-04 
          8.008e+02 2.926e+03 -1.219e-03 
          -9.758e+02 -5.972e+02 -7.610e-04 
          -1.410e+02 -1.122e+02 2.035e-04 
          4.902e+01 -3.586e+02 1.353e-03 
          1.073e+01 2.961e+01 -5.283e-03 
          -1.864e+03 9.037e+01 1.087e-03 
          4.158e+02 -2.072e+02 6.258e-04 
          1.404e+03 1.761e+03 1.155e-04 
          -3.002e+02 -3.053e+02 -1.525e-04 
          3.402e+02 8.055e+01 -1.361e-04 
          -1.679e+02 3.554e+02 -4.132e-04 